print           "This is replica: ${rep}"
This is replica: 2

read_data       ${rep}/lj.data
read_data       2/lj.data
Reading data file ...
  orthogonal box = (1.255352 1.255352 1.255352) to (23.744648 23.744648 23.744648)
  1 by 1 by 1 MPI processor grid
  reading atoms ...
  500 atoms
  reading velocities ...
  500 velocities
Finding 1-2 1-3 1-4 neighbors ...
  special bond factors lj:    0        0        0       
  special bond factors coul:  0        0        0       
     0 = max # of 1-2 neighbors
     0 = max # of 1-3 neighbors
     0 = max # of 1-4 neighbors
     1 = max # of special neighbors
  special bonds CPU = 0.000 seconds
  read_data CPU = 0.013 seconds

#dump            dump all xyz 1000 ${rep}/dump.xyz

fix             fxnpt all npt temp ${T0} ${T0} 1000.0 iso ${press} ${press} 10000.0
fix             fxnpt all npt temp 300 ${T0} 1000.0 iso ${press} ${press} 10000.0
fix             fxnpt all npt temp 300 300 1000.0 iso ${press} ${press} 10000.0
fix             fxnpt all npt temp 300 300 1000.0 iso 0 ${press} 10000.0
fix             fxnpt all npt temp 300 300 1000.0 iso 0 0 10000.0
fix             fxgREM all grem ${lambda} -.03 -30000 fxnpt
fix             fxgREM all grem 920 -.03 -30000 fxnpt

thermo          10
thermo_style    custom step temp f_fxgREM pe etotal press vol
thermo_modify   press fxgREM_press
timestep        1.0

temper/grem     10000 100 ${lambda} fxgREM fxnpt 10294 98392 #${walker}
temper/grem     10000 100 920 fxgREM fxnpt 10294 98392 

CITE-CITE-CITE-CITE-CITE-CITE-CITE-CITE-CITE-CITE-CITE-CITE-CITE

Your simulation uses code contributions which should be cited:

- Type Label Framework: https://doi.org/10.1021/acs.jpcb.3c08419

@Article{Gissinger24,
 author = {Jacob R. Gissinger, Ilia Nikiforov, Yaser Afshar, Brendon Waters, Moon-ki Choi, Daniel S. Karls, Alexander Stukowski, Wonpil Im, Hendrik Heinz, Axel Kohlmeyer, and Ellad B. Tadmor},
 title = {Type Label Framework for Bonded Force Fields in LAMMPS},
 journal = {J. Phys. Chem. B},
 year =    2024,
 volume =  128,
 number =  13,
 pages =   {3282--3297}
}

CITE-CITE-CITE-CITE-CITE-CITE-CITE-CITE-CITE-CITE-CITE-CITE-CITE

Generated 0 of 0 mixed pair_coeff terms from geometric mixing rule
Neighbor list info ...
  update: every = 1 steps, delay = 0 steps, check = yes
  max neighbors/atom: 2000, page size: 100000
  master list distance cutoff = 7
  ghost atom cutoff = 7
  binsize = 3.5, bins = 7 7 7
  1 neighbor lists, perpetual/occasional/extra = 1 0 0
  (1) pair lj/cut, perpetual
      attributes: half, newton on
      pair build: half/bin/newton
      stencil: half/bin/3d
      bin: standard
Per MPI rank memory allocation (min/avg/max) = 6.09 | 6.09 | 6.09 Mbytes
   Step          Temp         f_fxgREM        PotEng         TotEng         Press          Volume    
         0   303.5147       121.37576     -3379.1918     -2927.7367      939.06157      11374.376    
        10   302.01819      121.39208     -3379.7359     -2930.5067      955.34838      11374.385    
        20   299.66358      121.35742     -3378.5808     -2932.8539      998.04068      11374.412    
        30   297.90006      121.29795     -3376.5984     -2933.4946      1044.5336      11374.458    
        40   297.80983      121.28845     -3376.2818     -2933.3122      1054.8633      11374.524    
        50   299.23156      121.29836     -3376.6121     -2931.5278      1041.3832      11374.611    
        60   302.03521      121.3687      -3378.9568     -2929.7023      989.47217      11374.716    
        70   306.89739      121.46445     -3382.1482     -2925.6616      909.2266       11374.841    
        80   312.96043      121.61758     -3387.2525     -2921.7476      798.76417      11374.983    
        90   317.17383      121.67419     -3389.1396     -2917.3675      741.5685       11375.14     
       100   318.12867      121.67592     -3389.1973     -2916.005       732.26751      11375.311    
       110   317.4089       121.63553     -3387.851      -2915.7293      752.13655      11375.496    
       120   317.26902      121.64121     -3388.0405     -2916.1269      747.04625      11375.696    
       130   318.44428      121.66687     -3388.8958     -2915.2341      716.49713      11375.909    
       140   320.49354      121.72023     -3390.6743     -2913.9644      662.2318       11376.136    
       150   321.57554      121.7207      -3390.6899     -2912.3706      631.70605      11376.376    
       160   319.83843      121.66628     -3388.876      -2913.1406      645.49553      11376.628    
       170   314.72948      121.61398     -3387.1327     -2918.9964      690.19309      11376.892    
       180   307.88601      121.47523     -3382.5076     -2924.5505      787.57266      11377.17     
       190   302.43101      121.38539     -3379.5131     -2929.6699      860.15166      11377.462    
       200   300.55258      121.36416     -3378.8053     -2931.7561      879.26015      11377.771    
       210   302.16638      121.3547      -3378.4899     -2929.0404      861.35182      11378.097    
       220   306.03119      121.4293      -3380.9768     -2925.7786      784.42581      11378.439    
       230   311.24379      121.51256     -3383.752      -2920.8005      683.62082      11378.795    
       240   317.19703      121.63307     -3387.7688     -2915.9623      557.18119      11379.165    
       250   321.84076      121.77732     -3392.5772     -2913.8635      434.0092       11379.545    
       260   322.49162      121.77838     -3392.6126     -2912.9308      405.1637       11379.934    
       270   319.15713      121.73887     -3391.2958     -2916.5737      435.10446      11380.331    
       280   313.9767       121.65023     -3388.3411     -2921.3246      511.03434      11380.736    
       290   308.49007      121.54439     -3384.8129     -2925.9573      605.33544      11381.151    
       300   303.98377      121.46421     -3382.1405     -2929.9876      688.86731      11381.578    
       310   301.16346      121.3554      -3378.5134     -2930.5556      772.7648       11382.017    
       320   299.57858      121.33604     -3377.868      -2932.2676      811.31866      11382.472    
       330   298.20675      121.29687     -3376.5622     -2933.0022      851.15007      11382.941    
       340   296.68313      121.27869     -3375.9564     -2934.6628      875.52168      11383.427    
       350   296.07912      121.23761     -3374.587      -2934.1917      891.17373      11383.93     
       360   297.85359      121.28676     -3376.2254     -2933.1908      844.18758      11384.45     
       370   302.07395      121.34857     -3378.2858     -2928.9737      766.08943      11384.985    
       380   307.50065      121.42428     -3380.8094     -2923.4255      672.55894      11385.536    
       390   312.23942      121.47977     -3382.6591     -2918.2266      596.2442       11386.099    
       400   315.07426      121.54431     -3384.8104     -2916.1613      538.50239      11386.674    
       410   315.94736      121.55367     -3385.1224     -2915.1746      524.90853      11387.259    
       420   315.308        121.57919     -3385.9731     -2916.9764      521.58648      11387.855    
       430   313.4032       121.54638     -3384.8794     -2918.7159      551.57425      11388.46     
       440   310.63936      121.51003     -3383.6676     -2921.6151      585.99437      11389.077    
       450   308.58978      121.47867     -3382.6224     -2923.6185      604.82654      11389.704    
       460   308.96184      121.50293     -3383.431      -2923.8737      573.73886      11390.343    
       470   311.4936       121.52688     -3384.2294     -2920.9062      519.05356      11390.993    
       480   313.54366      121.55399     -3385.1329     -2918.7604      464.81728      11391.653    
       490   312.74688      121.56126     -3385.3752     -2920.1879      443.29797      11392.322    
       500   309.37009      121.4824      -3382.7468     -2922.5823      479.12079      11393        
       510   306.03399      121.44382     -3381.4606     -2926.2582      504.2208       11393.687    
       520   304.91888      121.42573     -3380.8577     -2927.314       504.19521      11394.383    
       530   306.9109       121.44806     -3381.602      -2925.0953      462.40295      11395.089    
       540   310.96035      121.50364     -3383.4547     -2920.9248      389.62414      11395.805    
       550   314.97562      121.58629     -3386.2097     -2917.7073      306.14008      11396.527    
       560   317.28356      121.58694     -3386.2312     -2914.2959      272.22043      11397.256    
       570   316.66151      121.58983     -3386.3278     -2915.3178      266.15239      11397.99     
       580   313.57979      121.55616     -3385.2054     -2918.7792      297.11162      11398.73     
       590   310.77002      121.50781     -3383.5936     -2921.3467      332.75694      11399.475    
       600   310.57073      121.48293     -3382.7645     -2920.8141      338.03978      11400.227    
       610   312.25773      121.52387     -3384.1292     -2919.6694      301.73567      11400.985    
       620   313.24877      121.52469     -3384.1563     -2918.2225      286.40953      11401.749    
       630   311.62895      121.50997     -3383.6657     -2920.1412      301.56364      11402.519    
       640   306.89289      121.4113      -3380.3767     -2923.8967      377.19061      11403.294    
       650   300.52076      121.30297     -3376.7657     -2929.7639      470.65505      11404.077    
       660   295.39635      121.2409      -3374.6966     -2935.3169      535.1769       11404.87     
       670   293.59489      121.20724     -3373.5747     -2936.8745      558.5258       11405.672    
       680   295.37645      121.24605     -3374.8682     -2935.5181      521.15217      11406.485    
       690   299.70675      121.34278     -3378.0926     -2932.3015      439.88451      11407.309    
       700   304.6057       121.47345     -3382.4484     -2929.3706      344.06692      11408.14     
       710   307.9714       121.55684     -3385.228      -2927.1439      285.11739      11408.979    
       720   308.35755      121.56273     -3385.4242     -2926.7657      287.01442      11409.823    
       730   305.34013      121.48735     -3382.9117     -2928.7414      351.37826      11410.673    
       740   300.03588      121.40624     -3380.2081     -2933.9275      433.66139      11411.53     
       750   295.12789      121.33239     -3377.7462     -2938.7658      499.62306      11412.396    
       760   293.47932      121.31733     -3377.2443     -2940.7161      501.29143      11413.271    
       770   296.16531      121.36079     -3378.693      -2938.1696      431.11128      11414.155    
       780   301.5151       121.4366      -3381.22       -2932.7391      319.5594       11415.048    
       790   306.1366       121.49943     -3383.3143     -2927.9593      219.97247      11415.948    
       800   307.37517      121.53663     -3384.5543     -2927.3571      166.60565      11416.851    
       810   304.8538       121.45458     -3381.8194     -2928.3725      200.69501      11417.759    
       820   300.6049       121.32561     -3377.5202     -2930.3932      274.23584      11418.67     
       830   297.78828      121.28176     -3376.0586     -2933.1211      304.6319       11419.587    
       840   298.50826      121.32145     -3377.3815     -2933.3731      269.77048      11420.509    
       850   302.59328      121.41403     -3380.4678     -2930.3832      180.09875      11421.437    
       860   308.16248      121.51776     -3383.9254     -2925.557       67.744147      11422.368    
       870   313.07201      121.57817     -3385.9388     -2920.268      -26.582779      11423.301    
       880   316.3066       121.71099     -3390.3663     -2919.8842     -134.57071      11424.233    
       890   317.74318      121.72451     -3390.8171     -2918.1982     -176.3885       11425.163    
       900   316.86369      121.71199     -3390.3995     -2919.0888     -179.7004       11426.09     
       910   312.83648      121.63071     -3387.6903     -2922.3698     -121.14463      11427.014    
       920   306.04951      121.52727     -3384.2423     -2929.0168     -24.989221      11427.935    
       930   298.7083       121.40208     -3380.0694     -2935.7635      86.417133      11428.857    
       940   293.17035      121.2464      -3374.88       -2938.8113      192.68152      11429.78     
       950   290.53038      121.25358     -3375.1194     -2942.9775      205.05757      11430.707    
       960   291.10374      121.26737     -3375.5791     -2942.5844      179.80839      11431.638    
       970   294.00435      121.32308     -3377.4359     -2940.1267      113.6449       11432.572    
       980   297.32688      121.40228     -3380.0759     -2937.8247      33.594444      11433.509    
       990   299.28586      121.46876     -3382.292      -2937.127      -27.440543      11434.446    
      1000   299.19182      121.45865     -3381.955      -2936.9298     -38.452805      11435.384    
      1010   298.24089      121.43307     -3381.1024     -2937.4916     -32.15021       11436.32     
      1020   298.25752      121.43689     -3381.2295     -2937.5941     -42.206233      11437.257    
      1030   300.05353      121.45312     -3381.7707     -2935.4638     -71.561436      11438.192    
      1040   303.04525      121.49497     -3383.1656     -2932.4087     -122.04889      11439.127    
      1050   305.63821      121.56915     -3385.6383     -2931.0246     -183.49974      11440.059    
      1060   306.09059      121.55731     -3385.2436     -2929.9571     -197.90006      11440.988    
      1070   304.60246      121.53409     -3384.4697     -2931.3966     -195.21156      11441.914    
      1080   303.09132      121.52228     -3384.076      -2933.2507     -197.61005      11442.836    
      1090   302.04878      121.49931     -3383.3105     -2934.0358     -196.93511      11443.754    
      1100   300.13976      121.4765      -3382.55       -2936.1148     -185.35461      11444.669    
      1110   297.10493      121.42143     -3380.7143     -2938.7933     -149.50069      11445.58     
      1120   294.3435       121.37532     -3379.1774     -2941.3637     -120.66085      11446.489    
      1130   293.53615      121.35655     -3378.5518     -2941.939      -121.66437      11447.395    
      1140   294.65986      121.37267     -3379.089      -2940.8048     -156.3384       11448.3      
      1150   296.41623      121.39231     -3379.7436     -2938.8469     -202.15559      11449.201    
      1160   297.78952      121.44448     -3381.4826     -2938.5432     -259.89344      11450.099    
      1170   298.3431       121.4306      -3381.0201     -2937.2573     -283.55808      11450.992    
      1180   297.93527      121.42709     -3380.903      -2937.7468     -298.10691      11451.879    
      1190   297.06971      121.44285     -3381.4282     -2939.5595     -311.86197      11452.762    
      1200   296.14169      121.46929     -3382.3095     -2941.8212     -326.93718      11453.638    
      1210   294.64247      121.41442     -3380.4807     -2942.2224     -306.17858      11454.509    
      1220   292.17731      121.3816      -3379.3868     -2944.7952     -287.25393      11455.373    
      1230   289.291        121.34114     -3378.0379     -2947.7394     -263.59244      11456.233    
      1240   287.37846      121.31028     -3377.0093     -2949.5556     -252.69751      11457.087    
      1250   288.01174      121.34509     -3378.1697     -2949.7741     -287.65098      11457.936    
      1260   290.70361      121.3894      -3379.6468     -2947.2472     -342.1319       11458.78     
      1270   293.07613      121.45175     -3381.7251     -2945.7965     -397.82703      11459.618    
      1280   293.33919      121.47593     -3382.5309     -2946.211      -419.27886      11460.448    
      1290   291.94925      121.43863     -3381.2876     -2947.0353     -402.85572      11461.271    
      1300   290.48485      121.38028     -3379.3427     -2947.2685     -377.60263      11462.086    
      1310   289.50393      121.38196     -3379.3986     -2948.7835     -379.37224      11462.894    
      1320   288.29251      121.33207     -3377.7356     -2948.9224     -359.68777      11463.694    
      1330   286.50433      121.30727     -3376.9092     -2950.7557     -344.70943      11464.488    
      1340   284.97298      121.28311     -3376.1037     -2952.228      -333.38386      11465.275    
      1350   285.0966       121.29665     -3376.5551     -2952.4955     -352.67902      11466.056    
      1360   287.70514      121.31168     -3377.056      -2949.1164     -397.73835      11466.831    
      1370   292.62918      121.40796     -3380.2653     -2945.0015     -496.01895      11467.597    
      1380   298.31986      121.53004     -3384.3346     -2940.6064     -611.09379      11468.354    
      1390   303.27999      121.61144     -3387.0479     -2935.9419     -703.0358       11469.1      
      1400   307.1382       121.70066     -3390.0219     -2933.1771     -783.00729      11469.832    
      1410   310.73513      111.76008     -3392.0028     -2929.8078     -902.78775      11470.549    
      1420   313.08174      111.81444     -3393.8147     -2928.1294     -948.67486      11471.248    
      1430   311.9127       111.78663     -3392.8878     -2928.9413     -934.39288      11471.929    
      1440   306.80427      111.65793     -3388.5977     -2932.2496     -851.94563      11472.593    
      1450   299.90427      111.5547      -3385.1568     -2939.072      -767.06965      11473.24     
      1460   294.06418      111.46913     -3382.3044     -2944.9062     -700.14404      11473.872    
      1470   291.16412      111.42845     -3380.9483     -2947.8638     -675.21126      11474.491    
      1480   290.92508      111.41612     -3380.5372     -2947.8082     -684.10178      11475.097    
      1490   291.66668      111.4476      -3381.5867     -2947.7546     -719.14755      11475.69     
      1500   292.29468      111.48896     -3382.9655     -2948.1993     -756.70557      11476.269    
      1510   292.87843      111.49412     -3383.1375     -2947.503      -779.71887      11476.834    
      1520   294.52671      111.4577      -3381.9234     -2943.8373     -795.32281      11477.384    
      1530   298.67512      111.52594     -3384.1979     -2939.9413     -869.39346      11477.918    
      1540   305.13577      111.64066     -3388.0221     -2934.1557     -976.53192      11478.436    
      1550   311.43147      111.76472     -3392.1575     -2928.9268     -1081.2694      11478.935    
      1560   314.76933      111.82793     -3394.2645     -2926.0689     -1133.4886      11479.414    
      1570   313.55584      111.85888     -3395.2959     -2928.9054     -1133.1358      11479.871    
      1580   308.47674      111.77424     -3392.4746     -2933.6388     -1057.0518      11480.306    
      1590   302.43776      111.67374     -3389.1248     -2939.2715     -969.78742      11480.721    
      1600   298.43421      111.60721     -3386.907      -2943.0087     -915.4856       11481.118    
      1610   295.87333      121.54948     -3384.9825     -2944.8934     -815.39877      11481.497    
      1620   291.71931      121.47066     -3382.3552     -2948.4449     -751.42944      11481.861    
      1630   286.42979      121.41864     -3380.6214     -2954.5788     -687.80803      11482.21     
      1640   282.34385      121.37645     -3379.2151     -2959.25       -636.93498      11482.546    
      1650   280.71466      121.3351      -3377.8368     -2960.295      -606.49685      11482.87     
      1660   280.75441      121.33969     -3377.9897     -2960.3888     -610.04623      11483.182    
      1670   281.2215       121.37568     -3379.1893     -2960.8936     -635.78122      11483.482    
      1680   281.61902      121.38267     -3379.4222     -2960.5352     -658.45364      11483.771    
      1690   282.45065      121.37774     -3379.2581     -2959.1341     -688.91458      11484.046    
      1700   285.01417      121.42774     -3380.9247     -2956.9878     -761.28658      11484.309    
      1710   289.92593      121.53599     -3384.533      -2953.2901     -877.19687      11484.557    
      1720   296.11439      121.63593     -3387.8643     -2947.4166     -995.10238      11484.788    
      1730   301.09277      121.72204     -3390.7347     -2942.8821     -1085.2337      11484.999    
      1740   302.13981      121.73703     -3391.2344     -2941.8243     -1098.8991      11485.191    
      1750   298.03972      121.65882     -3388.6273     -2945.3158     -1019.6621      11485.361    
      1760   290.88733      121.53721     -3384.5736     -2951.9008     -890.7337       11485.511    
      1770   285.22342      121.44255     -3381.4184     -2957.1701     -786.47607      11485.644    
      1780   284.86997      121.43985     -3381.3283     -2957.6058     -768.85235      11485.763    
      1790   289.64101      121.49032     -3383.0107     -2952.1917     -823.8123       11485.866    
      1800   296.32346      121.64256     -3388.0853     -2947.3266     -940.24044      11485.953    
      1810   301.15265      121.72598     -3390.866      -2942.9243     -1015.7349      11486.022    
      1820   301.48183      121.72002     -3390.6672     -2942.2358     -1015.6081      11486.072    
      1830   297.01409      121.63513     -3387.8376     -2946.0517     -940.1045       11486.102    
      1840   289.91149      121.50262     -3383.4205     -2952.1992     -821.22646      11486.115    
      1850   283.25347      121.42941     -3380.9803     -2959.6622     -726.05454      11486.111    
      1860   278.65796      121.30271     -3376.7571     -2962.2745     -627.69875      11486.093    
      1870   276.08359      121.27161     -3375.7202     -2965.0668     -583.50741      11486.064    
      1880   274.85719      121.24893     -3374.9643     -2966.135      -554.77666      11486.023    
      1890   274.50077      121.29704     -3376.568      -2968.2689     -562.11304      11485.971    
      1900   274.92037      121.28414     -3376.138      -2967.2148     -556.85577      11485.908    
      1910   276.38187      121.29793     -3376.5978     -2965.5007     -577.34489      11485.835    
      1920   279.0522       121.36896     -3378.9655     -2963.8965     -637.79575      11485.751    
      1930   282.47455      121.45359     -3381.7864     -2961.6269     -715.81979      11485.654    
      1940   285.48626      121.49138     -3383.0461     -2958.4069     -776.06799      11485.543    
      1950   287.3428       121.52407     -3384.1356     -2956.735      -823.14447      11485.418    
      1960   288.21343      121.5429      -3384.7633     -2956.0676     -852.64547      11485.277    
      1970   288.9787       121.59135     -3386.3785     -2956.5446     -887.02321      11485.119    
      1980   289.73558      121.61598     -3387.1992     -2956.2395     -906.15261      11484.944    
      1990   289.28073      121.64633     -3388.2109     -2957.9277     -911.88767      11484.752    
      2000   286.66585      121.61784     -3387.2613     -2960.8675     -874.51052      11484.542    
      2010   282.87106      121.52843     -3384.2809     -2963.5316     -803.33097      11484.315    
      2020   279.88443      121.45363     -3381.7877     -2965.4808     -746.57725      11484.073    
      2030   279.06114      121.43758     -3381.2526     -2966.1703     -733.9834       11483.817    
      2040   280.28681      121.45062     -3381.6873     -2964.7819     -755.28669      11483.546    
      2050   282.93493      121.46166     -3382.0552     -2961.2109     -793.15257      11483.26     
      2060   286.42662      121.49582     -3383.194      -2957.1561     -849.25665      11482.96     
      2070   290.31339      121.53323     -3384.4411     -2952.6219     -909.50427      11482.643    
      2080   294.66297      121.59873     -3386.6245     -2948.3357     -979.81759      11482.308    
      2090   299.04383      121.70046     -3390.0153     -2945.2103     -1054.8541      11481.955    
      2100   301.48934      121.75934     -3391.978      -2943.5355     -1084.0071      11481.581    
      2110   299.35069      121.68792     -3389.5974     -2944.3359     -1011.9661      11481.187    
      2120   291.86447      121.55914     -3385.3046     -2951.1783     -864.73992      11480.773    
      2130   281.44985      121.38935     -3379.645      -2961.0097     -676.07769      11480.343    
      2140   272.34717      121.27484     -3375.8281     -2970.7324     -526.47577      11479.899    
      2150   268.34617      121.21288     -3373.7626     -2974.618      -452.48738      11479.445    
      2160   270.66404      121.26087     -3375.3623     -2972.77       -487.51825      11478.983    
      2170   277.3412       121.36779     -3378.9264     -2966.4024     -592.67334      11478.511    
      2180   285.31798      121.50228     -3383.4092     -2959.0204     -723.86208      11478.027    
      2190   291.78698      121.60174     -3386.7248     -2952.7138     -826.2044       11477.53     
      2200   294.2843       121.66889     -3388.963      -2951.2375     -874.96462      11477.016    
      2210   292.73511      111.65709     -3388.5697     -2953.1484     -913.64187      11476.486    
      2220   289.5451       111.60627     -3386.8755     -2956.1991     -866.95807      11475.938    
      2230   287.15888      111.57265     -3385.7551     -2958.628      -835.44862      11475.373    
      2240   287.43175      111.56736     -3385.5788     -2958.0458     -838.34081      11474.792    
      2250   290.44498      111.64699     -3388.2331     -2956.2182     -897.69431      11474.195    
      2260   295.02934      111.75285     -3391.7615     -2952.9277     -981.89918      11473.581    
      2270   299.94073      111.81289     -3393.7629     -2947.6238     -1052.4984      11472.948    
      2280   304.12612      111.89652     -3396.5508     -2944.1862     -1126.1235      11472.294    
      2290   306.8618       111.93244     -3397.748      -2941.3144     -1168.979       11471.619    
      2300   308.12946      111.92819     -3397.6064     -2939.2871     -1181.3661      11470.922    
      2310   307.88275      111.94218     -3398.0727     -2940.1204     -1182.5943      11470.202    
      2320   305.31936      111.91373     -3397.1244     -2942.9849     -1142.4746      11469.459    
      2330   299.68469      111.84992     -3394.9973     -2949.2391     -1060.0873      11468.694    
      2340   291.81301      111.71733     -3390.5777     -2956.5279     -932.83956      11467.909    
      2350   284.44357      111.59312     -3386.4375     -2963.3492     -814.82672      11467.105    
      2360   280.82724      111.54698     -3384.8993     -2967.19       -760.29431      11466.286    
      2370   282.28989      111.63643     -3387.881      -2967.9962     -801.82697      11465.453    
      2380   287.00727      111.69319     -3389.773      -2962.8714     -859.60731      11464.604    
      2390   291.87521      111.73668     -3391.2226     -2957.0803     -913.36739      11463.738    
      2400   294.62746      111.83582     -3394.5272     -2956.2912     -970.52032      11462.855    
      2410   295.41339      111.86677     -3395.5589     -2956.1538     -984.55195      11461.953    
      2420   295.98342      111.85866     -3395.2885     -2955.0356     -980.45862      11461.033    
      2430   297.11719      111.88751     -3396.2503     -2954.311      -992.61068      11460.093    
      2440   297.64164      111.89059     -3396.353      -2953.6337     -988.60873      11459.135    
      2450   296.82573      111.89899     -3396.6331     -2955.1273     -973.86838      11458.158    
      2460   295.36989      111.8612      -3395.3732     -2956.0329     -931.68841      11457.162    
      2470   293.88119      111.85042     -3395.014      -2957.888      -897.77889      11456.148    
      2480   293.28557      111.86235     -3395.4117     -2959.1716     -882.33437      11455.116    
      2490   294.89224      111.85569     -3395.1896     -2956.5597     -880.66347      11454.068    
      2500   298.51237      111.94183     -3398.0608     -2954.0463     -933.8791       11453.003    
      2510   302.39946      111.99301     -3399.7671     -2949.9708     -977.01141      11451.92     
      2520   305.02424      112.02722     -3400.9073     -2947.2069     -1001.3657      11450.818    
      2530   306.06257      112.06662     -3402.2206     -2946.9757     -1008.3843      11449.698    
      2540   304.75332      112.03134     -3401.0447     -2947.7473     -961.37865      11448.557    
      2550   300.25734      111.98249     -3399.4164     -2952.8063     -880.86442      11447.399    
      2560   293.67117      111.8397      -3394.6565     -2957.8429     -748.79952      11446.224    
      2570   287.93811      111.72685     -3390.8949     -2962.6088     -638.58112      11445.034    
      2580   285.77101      111.71271     -3390.4235     -2965.3608     -600.26777      11443.832    
      2590   288.15482      111.74659     -3391.553      -2962.9445     -623.70121      11442.618    
      2600   294.07481      111.83936     -3394.6453     -2957.2313     -702.35975      11441.393    
      2610   300.58604      111.95402     -3398.4674     -2951.3684     -793.17328      11440.154    
      2620   304.18715      112.00457     -3400.1522     -2947.6969     -832.85392      11438.9      
      2630   303.9926       112.00764     -3400.2546     -2948.0887     -818.45737      11437.63     
      2640   301.98542      111.97666     -3399.2219     -2950.0415     -769.40641      11436.345    
      2650   300.38242      111.92082     -3397.3606     -2950.5645     -708.78607      11435.045    
      2660   299.65658      111.90327     -3396.7755     -2951.0591     -668.87584      11433.732    
      2670   299.01151      111.90679     -3396.8929     -2952.136      -639.42865      11432.406    
      2680   297.6338       111.89026     -3396.3422     -2953.6344     -598.45969      11431.067    
      2690   295.35758      111.82713     -3394.2377     -2954.9157     -534.68407      11429.718    
      2700   293.31347      111.76396     -3392.1322     -2955.8506     -473.186        11428.358    
      2710   293.32078      111.74278     -3391.426      -2955.1335     -440.80644      11426.989    
      2720   295.75245      111.76589     -3392.1963     -2952.2869     -438.69628      11425.612    
      2730   298.72783      111.86124     -3395.3746     -2951.0396     -462.05975      11424.226    
      2740   299.96073      111.89216     -3396.4054     -2950.2366     -443.17193      11422.832    
      2750   298.70965      111.8856      -3396.1866     -2951.8786     -389.84509      11421.429    
      2760   295.84531      111.85219     -3395.0729     -2955.0254     -316.51876      11420.02     
      2770   293.04419      111.85531     -3395.1769     -2959.2959     -265.02033      11418.604    
      2780   291.81654      111.82537     -3394.1788     -2960.1239     -223.26216      11417.183    
      2790   292.44297      111.84608     -3394.8692     -2959.8824     -224.46471      11415.758    
      2800   294.13629      111.89245     -3396.4151     -2958.9096     -249.78212      11414.328    
      2810   296.28367      111.8833      -3396.1099     -2955.4104     -257.29731      11412.894    
      2820   298.38758      111.91287     -3397.0956     -2953.2667     -275.13189      11411.455    
      2830   300.04985      111.93126     -3397.7088     -2951.4074     -279.33712      11410.011    
      2840   300.83885      111.94304     -3398.1015     -2950.6265     -267.55098      11408.562    
      2850   300.17784      111.92678     -3397.5593     -2951.0675     -230.09548      11407.108    
      2860   298.6553       111.91987     -3397.3291     -2953.102      -189.81049      11405.65     
      2870   297.76034      111.91948     -3397.316      -2954.4201     -159.87891      11404.188    
      2880   298.05494      111.95472     -3398.4907     -2955.1565     -159.43412      11402.724    
      2890   298.99142      112.00472     -3400.1573     -2955.4302     -177.31705      11401.256    
      2900   299.66554      112.03062     -3401.0207     -2955.2909     -189.97132      11399.786    
      2910   299.5868       112.06376     -3402.1254     -2956.5127     -202.82367      11398.312    
      2920   298.86476      112.0507      -3401.69       -2957.1513     -194.80145      11396.834    
      2930   298.59423      112.03339     -3401.1129     -2956.9766     -189.12053      11395.353    
      2940   300.13732      112.06219     -3402.073      -2955.6415     -211.10636      11393.868    
      2950   302.3931       112.07539     -3402.5129     -2952.7261     -223.54397      11392.38     
      2960   302.27024      112.06484     -3402.1613     -2952.5573     -197.94553      11390.887    
      2970   298.76352      112.02941     -3400.9802     -2956.5921     -125.6245       11389.391    
      2980   293.5125       111.98064     -3399.3547     -2962.7771     -27.413257      11387.893    
      2990   289.35212      111.93428     -3397.8092     -2967.4198      63.775373      11386.395    
      3000   288.97481      111.9469      -3398.2301     -2968.4019      99.328149      11384.898    
      3010   292.2899       111.99351     -3399.7835     -2965.0244      85.608769      11383.402    
      3020   296.82669      112.04479     -3401.493      -2959.9858      54.455074      11381.909    
      3030   300.16202      112.11559     -3403.8531     -2957.3849      23.908787      11380.417    
      3040   300.3351       112.09438     -3403.146      -2956.4203      54.528486      11378.926    
      3050   296.95176      112.04938     -3401.646      -2959.9527      122.58514      11377.436    
      3060   292.54893      112.00712     -3400.2373     -2965.0929      193.96784      11375.948    
      3070   291.21315      112.016       -3400.5332     -2967.3757      214.11549      11374.464    
      3080   294.80698      112.03212     -3401.0707     -2962.5676      183.82062      11372.985    
      3090   301.48144      112.16303     -3405.4345     -2957.0037      78.148207      11371.509    
      3100   307.33139      112.26078     -3408.6927     -2951.5605     -9.6449416      11370.035    
      3110   309.47818      112.3009      -3410.03       -2949.7047     -40.665934      11368.561    
      3120   307.84126      112.23449     -3407.8162     -2949.9257      8.9956249      11367.087    
      3130   304.05939      112.12447     -3404.149      -2951.8837      102.25232      11365.613    
      3140   299.69647      112.07587     -3402.529      -2956.7532      180.724        11364.141    
      3150   296.49586      112.04278     -3401.4259     -2960.4108      241.80223      11362.673    
      3160   296.03107      112.04733     -3401.5777     -2961.2539      260.02896      11361.21     
      3170   298.58878      112.09063     -3403.021      -2958.8928      233.06357      11359.752    
      3180   302.39567      112.16285     -3405.4284     -2955.6378      180.59295      11358.298    
      3190   304.66875      112.20972     -3406.9908     -2953.8192      150.19138      11356.848    
      3200   303.04182      112.19161     -3406.387      -2955.6353      177.8672       11355.401    
      3210   297.71097      112.14328     -3404.7759     -2961.9534      247.03322      11353.958    
      3220   292.14131      112.08306     -3402.7687     -2968.2306      320.43422      11352.519    
      3230   290.81592      112.06602     -3402.2008     -2969.6341      342.28951      11351.087    
      3240   294.82494      112.14207     -3404.7356     -2966.2058      284.60336      11349.662    
      3250   301.32802      112.24422     -3408.1408     -2959.9382      199.67613      11348.242    
      3260   306.14598      112.31077     -3410.3589     -2954.99        148.0574       11346.826    
      3270   307.07627      112.30074     -3410.0247     -2953.272       167.6762       11345.414    
      3280   304.04799      112.27592     -3409.1972     -2956.9488      236.32934      11344.005    
      3290   298.33597      112.17868     -3405.9559     -2962.2037      362.40613      11342.6      
      3300   292.05202      112.0798      -3402.66       -2968.2547      494.6199       11341.203    
      3310   287.39576      111.98034     -3399.3448     -2971.8654      609.42133      11339.816    
      3320   285.62716      111.9527      -3398.4233     -2973.5746      665.99339      11338.44     
      3330   286.58028      112.002       -3400.0667     -2973.8002      663.76539      11337.076    
      3340   288.85788      112.04985     -3401.6616     -2972.0073      645.68632      11335.726    
      3350   290.99406      112.13887     -3404.629      -2971.7974      611.34281      11334.387    
      3360   291.70898      112.14516     -3404.8385     -2970.9435      620.83703      11333.061    
      3370   290.84439      112.16851     -3405.6169     -2973.0079      635.86061      11331.746    
      3380   290.27139      112.20463     -3406.8209     -2975.0642      642.11047      11330.444    
      3390   291.92359      112.24253     -3408.0842     -2973.87        626.9439       11329.154    
      3400   295.79263      112.29396     -3409.7988     -2969.8297      584.52666      11327.875    
      3410   300.36372      112.34551     -3411.5169     -2964.7486      534.15686      11326.608    
      3420   303.94443      112.40439     -3413.4796     -2961.3853      489.99277      11325.351    
      3430   305.77969      112.46192     -3415.3973     -2960.5732      462.9579       11324.104    
      3440   306.07617      112.47013     -3415.6709     -2960.4058      471.73583      11322.866    
      3450   304.73058      112.4747      -3415.8232     -2962.5595      500.37401      11321.636    
      3460   301.68084      112.38365     -3412.7882     -2964.0608      581.96027      11320.417    
      3470   298.78526      112.3504      -3411.68       -2967.2595      640.05199      11319.209    
      3480   298.54185      112.40483     -3413.4943     -2969.4359      641.14491      11318.012    
      3490   301.23662      112.46911     -3415.6372     -2967.5705      612.94579      11316.828    
      3500   304.27898      112.5512      -3418.3734     -2965.7814      570.3988       11315.656    
      3510   306.88729      102.61393     -3420.4644     -2963.9928      471.00999      11314.494    
      3520   309.24388      102.65701     -3421.9003     -2961.9235      432.6064       11313.34     
      3530   310.41899      102.66247     -3422.0825     -2960.3577      413.87175      11312.196    
      3540   309.67835      102.67026     -3422.3422     -2961.7191      411.61125      11311.059    
      3550   306.94697      102.65159     -3421.7196     -2965.1592      442.57102      11309.93     
      3560   302.71477      102.54683     -3418.2275     -2967.9623      525.05629      11308.81     
      3570   298.35789      102.4677      -3415.59       -2971.8052      600.99165      11307.7      
      3580   296.69959      102.42557     -3414.1857     -2972.8675      642.36618      11306.601    
      3590   299.33683      102.45292     -3415.0972     -2969.8564      624.86833      11305.515    
      3600   303.76023      102.55498     -3418.4993     -2966.679       565.34213      11304.44     
      3610   306.09631      102.61354     -3420.4514     -2965.1563      537.55194      11303.376    
      3620   305.62402      102.61338     -3420.4461     -2965.8536      551.09888      11302.323    
      3630   304.58494      102.63617     -3421.2055     -2968.1585      555.93078      11301.28     
      3640   305.27987      102.69725     -3423.2415     -2969.1609      526.73387      11300.247    
      3650   308.69419      102.74853     -3424.9511     -2965.7919      473.31292      11299.225    
      3660   314.25275      102.81308     -3427.1027     -2959.6755      394.88884      11298.212    
      3670   318.78985      102.86617     -3428.8724     -2954.6967      328.61126      11297.206    
      3680   319.03902      102.93264     -3431.088      -2956.5416      292.62213      11296.206    
      3690   315.08944      102.83216     -3427.7385     -2959.0668      358.20614      11295.213    
      3700   309.85171      102.8026      -3426.7534     -2965.8725      414.28364      11294.226    
      3710   305.53936      102.70023     -3423.341      -2968.8744      499.7803       11293.247    
      3720   301.5632       102.65024     -3421.6747     -2973.1223      567.51398      11292.278    
      3730   296.78612      102.60364     -3420.1213     -2978.6745      641.49679      11291.319    
      3740   292.36562      102.5504      -3418.3466     -2983.4749      715.86075      11290.373    
      3750   291.10626      102.55311     -3418.4371     -2985.4386      743.50002      11289.44     
      3760   294.93213      102.60967     -3420.3224     -2981.6332      708.32056      11288.522    
      3770   302.75186      102.73128     -3424.3759     -2974.0555      612.90651      11287.616    
      3780   311.35577      102.82578     -3427.5259     -2964.4078      520.13912      11286.722    
      3790   317.13606      102.92061     -3430.6869     -2958.9711      450.84657      11285.838    
      3800   316.93497      102.91207     -3430.4023     -2958.9856      468.80769      11284.963    
      3810   310.51979      102.83977     -3427.9923     -2966.1176      560.14277      11284.097    
      3820   301.61821      102.7766      -3425.8868     -2977.2526      666.51874      11283.241    
      3830   294.92762      102.67208     -3422.4026     -2983.7201      771.0578       11282.398    
      3840   291.8041       102.64157     -3421.3856     -2987.3491      818.4861       11281.57     
      3850   290.72217      102.61053     -3420.3511     -2987.9239      846.16828      11280.756    
      3860   290.9528       102.63488     -3421.1625     -2988.3923      840.14486      11279.959    
      3870   292.14877      102.62252     -3420.7506     -2986.2015      840.89373      11279.177    
      3880   293.57467      102.66887     -3422.2958     -2985.6257      818.05018      11278.412    
      3890   294.96853      102.71075     -3423.6917     -2984.9484      796.29641      11277.661    
      3900   297.71906      102.73765     -3424.5883     -2981.7537      769.14938      11276.926    
      3910   302.66172      102.80594     -3426.8648     -2976.6784      707.44812      11276.205    
      3920   308.60235      102.87781     -3429.2604     -2970.2378      634.85604      11275.497    
      3930   313.14812      102.90084     -3430.0279     -2964.2438      592.83939      11274.801    
      3940   314.14805      102.90904     -3430.3012     -2963.0298      588.68989      11274.117    
      3950   311.1255       102.87127     -3429.0424     -2966.2668      638.69589      11273.444    
      3960   306.66502      102.79955     -3426.6516     -2970.5106      717.73872      11272.783    
      3970   304.09652      102.74874     -3424.958      -2972.6374      778.13631      11272.135    
      3980   303.12959      102.72633     -3424.2109     -2973.3286      816.07478      11271.502    
      3990   301.50064      102.6739      -3422.4632     -2974.0038      867.33164      11270.884    
      4000   299.2211       102.64692     -3421.564      -2976.4953      907.96876      11270.282    
      4010   298.47423      102.65899     -3421.9663     -2978.0085      916.92336      11269.697    
      4020   300.4661       102.71286     -3423.762      -2976.8414      886.75687      11269.13     
      4030   303.82864      102.75218     -3425.0725     -2973.1504      852.43189      11268.578    
      4040   306.09115      102.83384     -3427.7948     -2972.5074      811.34924      11268.043    
      4050   305.81599      102.82539     -3427.513      -2972.6349      826.35173      11267.524    
      4060   302.94336      102.75736     -3425.2453     -2974.64        886.16869      11267.019    
      4070   298.64116      102.69895     -3423.2982     -2979.0921      953.4737       11266.532    
      4080   294.87349      102.66441     -3422.1469     -2983.5449      1005.8662      11266.062    
      4090   293.33194      102.65973     -3421.9909     -2985.6818      1027.3369      11265.61     
      4100   294.43555      102.72306     -3424.102      -2986.1514      1001.1834      11265.178    
      4110   296.7302       102.7611      -3425.3699     -2984.0062      975.42626      11264.765    
      4120   297.95606      102.76308     -3425.4359     -2982.2488      969.48824      11264.37     
      4130   297.59899      102.79204     -3426.4013     -2983.7454      961.33808      11263.993    
      4140   297.09762      102.76353     -3425.4509     -2983.5407      976.39701      11263.634    
      4150   296.43608      102.76805     -3425.6016     -2984.6754      982.791        11263.293    
      4160   293.98579      102.70564     -3423.5213     -2986.2397      1031.3391      11262.971    
      4170   290.14601      102.6653      -3422.1768     -2990.6066      1080.4132      11262.668    
      4180   288.69855      102.6575      -3421.9167     -2992.4994      1095.7131      11262.385    
      4190   292.67239      102.74427     -3424.8091     -2989.4811      1028.6467      11262.122    
      4200   300.68117      102.83764     -3427.9215     -2980.681       924.19918      11261.879    
      4210   307.54225      102.97676     -3432.5587     -2975.1129      808.31723      11261.653    
      4220   308.91595      103.01611     -3433.8703     -2974.3812      772.01532      11261.441    
      4230   305.16864      102.92958     -3430.986      -2977.0708      823.51114      11261.245    
      4240   301.07883      102.86144     -3428.7146     -2980.8826      871.01869      11261.064    
      4250   301.08308      102.90722     -3430.2406     -2982.4024      843.20741      11260.899    
      4260   304.92424      102.97232     -3432.4107     -2978.859       780.40065      11260.75     
      4270   308.25294      103.01385     -3433.7949     -2975.292       735.10309      11260.615    
      4280   307.17435      103.00363     -3433.4543     -2976.5558      749.95186      11260.494    
      4290   301.22938      102.89906     -3429.9685     -2981.9126      843.01004      11260.388    
      4300   293.35049      102.79643     -3426.5477     -2990.2111      950.38405      11260.297    
      4310   287.50097      102.72084     -3424.0282     -2996.3923      1027.5389      11260.223    
      4320   286.02142      102.70819     -3423.6063     -2998.1711      1040.8983      11260.169    
      4330   288.01708      102.74859     -3424.953      -2996.5494      1001.0043      11260.134    
      4340   290.80245      102.75366     -3425.122      -2992.5754      964.88889      11260.118    
      4350   292.78156      102.79765     -3426.5885     -2991.0981      919.385        11260.12     
      4360   294.96853      102.84873     -3428.2911     -2989.5477      871.07437      11260.139    
      4370   299.26864      102.92832     -3430.944      -2985.8046      801.59519      11260.174    
      4380   303.79772      102.98778     -3432.9259     -2981.0498      743.41686      11260.224    
      4390   304.53042      103.00483     -3433.4943     -2980.5284      731.98232      11260.289    
      4400   300.62537      102.94288     -3431.4294     -2984.272       786.02414      11260.366    
      4410   295.30528      102.82772     -3427.5905     -2988.3463      868.20401      11260.459    
      4420   292.95219      102.77377     -3425.7922     -2990.048       902.93541      11260.568    
      4430   294.65829      102.81737     -3427.2458     -2988.9639      870.58491      11260.693    
      4440   298.1921       102.86919     -3428.9731     -2985.4349      825.15683      11260.835    
      4450   300.96104      102.92905     -3430.9684     -2983.3116      787.1488       11260.992    
      4460   301.80552      102.92391     -3430.797      -2981.8841      794.50761      11261.164    
      4470   300.18461      102.885       -3429.5        -2982.9982      835.5262       11261.351    
      4480   296.84864      102.81192     -3427.064      -2985.5241      901.18705      11261.553    
      4490   293.22341      102.75416     -3425.1387     -2988.9911      956.55323      11261.772    
      4500   290.75045      102.66665     -3422.2217     -2989.7524      1004.2952      11262.008    
      4510   291.19762      102.66317     -3422.1058     -2988.9714      988.22371      11262.264    
      4520   295.41068      102.74092     -3424.6973     -2985.2963      908.36967      11262.537    
      4530   301.28764      102.87567     -3429.1889     -2981.0464      794.14393      11262.828    
      4540   305.63473      102.98323     -3432.7743     -2978.1658      704.5715       11263.133    
      4550   307.4696       103.01679     -3433.8928     -2976.5551      666.76204      11263.452    
      4560   307.58104      103.04364     -3434.788      -2977.2845      647.22401      11263.783    
      4570   306.70866      103.01601     -3433.867      -2977.6611      657.72961      11264.126    
      4580   304.65827      102.97042     -3432.3472     -2979.1911      684.30274      11264.482    
      4590   301.38214      102.95338     -3431.7795     -2983.4964      709.68347      11264.85     
      4600   297.69066      102.89843     -3429.9478     -2987.1555      753.3685       11265.231    
      4610   294.98809      102.84285     -3428.095      -2989.3226      790.13045      11265.627    
      4620   294.41097      102.83164     -3427.7212     -2989.8072      794.61781      11266.038    
      4630   295.26643      102.85017     -3428.3392     -2989.1527      778.9594       11266.463    
      4640   295.22679      102.81942     -3427.314      -2988.1866      790.11612      11266.903    
      4650   293.81647      102.7796      -3425.9868     -2988.957       813.69149      11267.358    
      4660   293.5589       102.7929      -3426.4299     -2989.7833      804.29173      11267.827    
      4670   297.2518       102.83505     -3427.8349     -2985.6953      752.64405      11268.312    
      4680   303.50076      102.90453     -3430.151      -2978.7167      673.19766      11268.811    
      4690   306.80998      102.94881     -3431.6271     -2975.2705      629.92574      11269.322    
      4700   302.69764      102.89908     -3429.9694     -2979.7296      683.39371      11269.846    
      4710   292.50627      102.74458     -3424.8193     -2989.7384      825.04477      11270.382    
      4720   282.89938      102.55576     -3418.5254     -2997.734       972.75308      11270.934    
      4730   280.06955      102.5179      -3417.2635     -3000.6812      1003.1992      11271.504    
      4740   284.26996      102.61095     -3420.3649     -2997.5348      919.82646      11272.092    
      4750   290.87219      102.7249      -3424.1634     -2991.5131      802.66324      11272.698    
      4760   295.26232      102.82481     -3427.4937     -2988.3134      704.72009      11273.318    
      4770   296.1313       102.80377     -3426.7925     -2986.3196      684.1956       11273.952    
      4780   294.38826      102.81772     -3427.2575     -2989.3773      675.81225      11274.599    
      4790   292.13294      102.78828     -3426.276      -2991.7504      693.20762      11275.259    
      4800   291.52858      102.81177     -3427.059      -2993.4323      680.5957       11275.931    
      4810   292.77042      102.85555     -3428.5184     -2993.0446      646.17679      11276.617    
      4820   294.00033      102.83206     -3427.7355     -2990.4323      635.39717      11277.315    
      4830   293.79901      102.83393     -3427.7978     -2990.7941      621.73684      11278.024    
      4840   292.32019      102.83596     -3427.8652     -2993.0611      615.04486      11278.746    
      4850   290.07123      102.79072     -3426.3572     -2994.8983      631.94597      11279.479    
      4860   287.91326      102.72713     -3424.2378     -2995.9887      658.41516      11280.224    
      4870   287.10883      102.6566      -3421.8867     -2994.8341      683.27247      11280.982    
      4880   288.43836      102.68562     -3422.854      -2993.8238      657.88276      11281.752    
      4890   291.91907      102.72782     -3424.2606     -2990.0531      611.7924       11282.535    
      4900   296.65015      102.80096     -3426.6987     -2985.4541      545.02349      11283.329    
      4910   299.80306      102.88156     -3429.3855     -2983.4512      486.63275      11284.134    
      4920   298.77378      102.90601     -3430.2002     -2985.7968      480.83622      11284.948    
      4930   293.77984      102.86585     -3428.8618     -2991.8866      528.06435      11285.771    
      4940   288.44297      102.77314     -3425.7713     -2996.7342      595.54615      11286.605    
      4950   286.81821      102.72543     -3424.1809     -2997.5605      615.88752      11287.449    
      4960   289.28129      102.74408     -3424.8027     -2994.5187      574.47803      11288.305    
      4970   293.73606      102.8208      -3427.36       -2990.4499      487.8255       11289.172    
      4980   298.2995       102.87942     -3429.3141     -2985.6162      402.92762      11290.048    
      4990   301.19206      102.92037     -3430.679      -2982.6787      337.39301      11290.931    
      5000   300.99987      102.94565     -3431.5218     -2983.8073      304.12647      11291.821    
      5010   297.78484      102.88914     -3429.6382     -2986.7058      329.36745      11292.718    
      5020   293.31723      102.80164     -3426.7213     -2990.4342      382.55508      11293.62     
      5030   289.36845      102.76947     -3425.6488     -2995.2352      415.05313      11294.53     
      5040   287.39322      102.78318     -3426.1061     -2998.6304      416.27537      11295.448    
      5050   288.19617      102.75653     -3425.2176     -2996.5476      411.56385      11296.374    
      5060   291.50177      102.78785     -3426.2617     -2992.6749      362.27171      11297.307    
      5070   296.3031       102.84595     -3428.1985     -2987.4701      287.62599      11298.248    
      5080   300.79721      102.8836      -3429.4532     -2982.0401      220.97976      11299.194    
      5090   303.36808      102.9391      -3431.3035     -2980.0664      161.85134      11300.144    
      5100   304.04263      102.95768     -3431.9225     -2979.6821      134.97882      11301.098    
      5110   303.28752      102.92681     -3430.8938     -2979.7766      144.45609      11302.055    
      5120   300.31107      102.88562     -3429.5205     -2982.8306      179.51354      11303.014    
      5130   294.65333      102.79949     -3426.6497     -2988.3752      254.10902      11303.977    
      5140   287.63022      102.70439     -3423.4796     -2995.6514      341.04689      11304.945    
      5150   281.50786      102.60738     -3420.246      -3001.5244      417.63038      11305.92     
      5160   278.49128      102.52224     -3417.4081     -3003.1734      459.31536      11306.902    
      5170   280.17475      102.56396     -3418.7986     -3002.0599      409.66333      11307.893    
      5180   286.03767      102.63        -3421.0001     -2995.5407      314.34959      11308.892    
      5190   293.8672       102.78921     -3426.3069     -2989.2017      168.50812      11309.897    
      5200   301.07069      102.89949     -3429.983      -2982.1632      53.492474      11310.906    
      5210   304.93116      102.99417     -3433.1389     -2979.5769     -20.468877      11311.915    
      5220   303.95421      102.99103     -3433.0342     -2980.9253     -11.679248      11312.925    
      5230   298.64266      102.92161     -3430.7202     -2986.5119      60.203839      11313.935    
      5240   290.77969      102.76198     -3425.3994     -2992.8867      183.50805      11314.946    
      5250   283.80745      102.6871      -3422.9032     -3000.7611      259.84367      11315.96     
      5260   281.40204      102.61496     -3420.4986     -3001.9344      291.76937      11316.98     
      5270   283.97664      102.64251     -3421.417      -2999.0233      241.26672      11318.005    
      5280   287.93235      102.69504     -3423.168      -2994.8905      168.38834      11319.035    
      5290   289.6995       102.7101      -3423.6699     -2992.7638      129.28163      11320.068    
      5300   288.28632      102.66075     -3422.0251     -2993.2211      145.44557      11321.104    
      5310   284.79704      102.58359     -3419.453      -2995.839       194.08934      11322.143    
      5320   281.41337      102.52        -3417.3333     -2998.7523      239.39663      11323.185    
      5330   279.75944      102.50646     -3416.8819     -3000.7609      247.51548      11324.233    
      5340   280.83557      102.53444     -3417.8145     -3000.0929      208.54137      11325.285    
      5350   284.83385      102.56353     -3418.7843     -2995.1155      135.97647      11326.341    
      5360   290.51633      102.6656      -3422.1866     -2990.0655      14.774356      11327.4      
      5370   296.5459       102.81245     -3427.0818     -2985.9922     -127.04598      11328.46     
      5380   301.6018       102.91284     -3430.4281     -2981.8182     -235.37421      11329.517    
      5390   302.68457      102.95241     -3431.747      -2981.5267     -280.01043      11330.57     
      5400   298.55471      102.86882     -3428.9605     -2984.883      -228.29201      11331.618    
      5410   292.03845      102.81582     -3427.1939     -2992.8088     -163.67001      11332.663    
      5420   287.38593      102.73221     -3424.4069     -2996.9421     -98.124174      11333.704    
      5430   286.54555      102.69507     -3423.1692     -2996.9544     -79.608934      11334.743    
      5440   287.71858      102.70442     -3423.4805     -2995.521      -98.728832      11335.782    
      5450   288.16548      102.72631     -3424.2102     -2995.5859     -123.73254      11336.818    
      5460   287.69027      102.67493     -3422.4976     -2994.5801     -117.61801      11337.853    
      5470   287.41576      102.67789     -3422.5962     -2995.087      -133.48127      11338.885    
      5480   287.67739      102.66922     -3422.3073     -2994.409      -145.66325      11339.915    
      5490   288.16699      102.67188     -3422.3961     -2993.7696     -160.51731      11340.943    
      5500   288.82436      102.69678     -3423.2261     -2993.6218     -183.02649      11341.967    
      5510   289.21963      102.71767     -3423.9224     -2993.7301     -200.99688      11342.989    
      5520   287.59367      102.69173     -3423.0576     -2995.2838     -187.82104      11344.007    
      5530   283.90119      102.60272     -3420.0908     -2997.8093     -139.83582      11345.021    
      5540   280.95734      102.56859     -3418.9531     -3001.0503     -122.61861      11346.033    
      5550   280.99852      102.57207     -3419.069      -3001.105      -145.4364       11347.042    
      5560   283.73209      102.59285     -3419.7617     -2997.7317     -197.90992      11348.049    
      5570   287.64973      102.65136     -3421.7121     -2993.855      -274.60777      11349.052    
      5580   291.31604      102.67447     -3422.4825     -2989.1719     -334.37807      11350.051    
      5590   293.74644      102.66286     -3422.0955     -2985.1699     -368.19973      11351.043    
      5600   294.67354      102.70313     -3423.4378     -2985.1333     -405.47863      11352.028    
      5610   294.34204      102.70446     -3423.4819     -2985.6704     -412.65248      11353.006    
      5620   292.89959      102.73616     -3424.5387     -2988.8728     -417.04093      11353.977    
      5630   290.11373      102.68028     -3422.676      -2991.1538     -373.14684      11354.939    
      5640   286.66474      102.6261      -3420.87       -2994.478      -321.23288      11355.895    
      5650   283.83538      102.58142     -3419.3806     -2997.197      -277.6626       11356.845    
      5660   282.91247      102.54209     -3418.0696     -2997.2588     -251.94362      11357.79     
      5670   283.88745      102.56329     -3418.7762     -2996.5152     -265.95954      11358.73     
      5680   285.871        102.61555     -3420.5185     -2995.307      -300.31054      11359.665    
      5690   287.73702      102.61075     -3420.3585     -2992.3715     -312.94142      11360.595    
      5700   288.79621      102.60934     -3420.3113     -2990.7488     -321.77167      11361.519    
      5710   288.58761      102.6004      -3420.0133     -2990.7611     -321.45242      11362.437    
      5720   287.7003       102.61656     -3420.5521     -2992.6197     -331.16279      11363.349    
      5730   287.6998       102.59099     -3419.6996     -2991.7679     -339.12449      11364.255    
      5740   289.64119      102.61077     -3420.3591     -2989.5398     -386.90855      11365.155    
      5750   292.89924      102.67033     -3422.3444     -2986.679      -465.31771      11366.048    
      5760   295.93998      102.66728     -3422.2425     -2982.0542     -519.85293      11366.932    
      5770   297.959        102.71958     -3423.9862     -2980.7947     -585.47111      11367.806    
      5780   299.54836      102.76538     -3425.5125     -2979.957      -637.20408      11368.67     
      5790   300.89785      102.82321     -3427.4403     -2979.8775     -680.58625      11369.521    
      5800   300.88195      102.83657     -3427.8857     -2980.3466     -686.48872      11370.359    
      5810   298.62444      102.76824     -3425.608      -2981.4268     -638.08903      11371.185    
      5820   294.26915      102.68768     -3422.9227     -2985.2197     -567.57667      11371.999    
      5830   288.16998      102.60424     -3420.1414     -2991.5104     -486.69595      11372.803    
      5840   281.44111      102.51125     -3417.0417     -2998.4193     -406.89437      11373.597    
      5850   276.69321      102.4367      -3414.5568     -3002.9966     -359.40914      11374.384    
      5860   276.03378      102.39291     -3413.097      -3002.5176     -361.82485      11375.163    
      5870   278.88855      102.44601     -3414.867      -3000.0415     -431.26997      11375.936    
      5880   282.92368      102.49725     -3416.575      -2995.7474     -508.05893      11376.701    
      5890   286.20917      102.54089     -3418.0297     -2992.3152     -571.72384      11377.457    
      5900   288.45159      102.57645     -3419.2149     -2990.165      -616.6191       11378.202    
      5910   290.28225      102.64509     -3421.5031     -2989.7303     -662.46282      11378.935    
      5920   292.34884      102.6857      -3422.8568     -2988.0101     -691.72046      11379.656    
      5930   294.77358      102.73573     -3424.5243     -2986.071      -721.29684      11380.364    
      5940   296.7084       102.78217     -3426.0723     -2984.741      -743.31356      11381.059    
      5950   296.93026      102.75907     -3425.3022     -2983.6409     -724.63394      11381.739    
      5960   294.10273      102.72877     -3424.2923     -2986.8368     -681.56574      11382.406    
      5970   288.19352      102.64752     -3421.5841     -2992.9181     -599.01592      11383.06     
      5980   280.98772      102.52294     -3417.4314     -2999.4835     -494.96442      11383.703    
      5990   275.02035      102.4056      -3413.52       -3004.4481     -409.96923      11384.337    
      6000   272.0889       102.34247     -3411.4158     -3006.7042     -378.52563      11384.963    
      6010   272.72271      102.34149     -3411.3829     -3005.7286     -409.29115      11385.582    
      6020   276.65363      102.41817     -3413.9389     -3002.4376     -504.73138      11386.193    
      6030   282.80186      102.50088     -3416.6961     -2996.0497     -623.3868       11386.794    
      6040   288.79322      102.57328     -3419.1094     -2989.5513     -734.65157      11387.384    
      6050   292.68652      102.64121     -3421.3737     -2986.0247     -819.87236      11387.96     
      6060   294.73591      102.66118     -3422.0393     -2983.642      -859.8821       11388.521    
      6070   295.90387      102.67553     -3422.5178     -2982.3832     -877.33002      11389.065    
      6080   296.02519      102.66208     -3422.0692     -2981.7542     -865.98858      11389.593    
      6090   294.53363      102.63979     -3421.3265     -2983.23       -835.61488      11390.105    
      6100   291.81539      102.62633     -3420.8775     -2986.8242     -801.67873      11390.601    
      6110   289.05983      102.56503     -3418.8342     -2988.8796     -754.88578      11391.081    
      6120   287.11682      102.48458     -3416.1527     -2989.0882     -713.66563      11391.548    
      6130   285.94566      102.43569     -3414.5229     -2989.2004     -696.56304      11392        
      6140   285.31491      102.44231     -3414.7436     -2990.3593     -707.82349      11392.44     
      6150   284.98106      102.40604     -3413.5346     -2989.6468     -705.2426       11392.867    
      6160   285.03088      102.39536     -3413.1788     -2989.217      -712.99491      11393.28     
      6170   285.86746      102.42819     -3414.2729     -2989.0667     -738.64671      11393.679    
      6180   287.74715      102.44127     -3414.7089     -2986.7069     -756.74339      11394.065    
      6190   289.79472      102.47659     -3415.8864     -2984.8387     -777.96658      11394.436    
      6200   291.10978      102.46914     -3415.638      -2982.6343     -771.64035      11394.793    
      6210   291.42693      102.51354     -3417.1179     -2983.6424     -776.27699      11395.135    
      6220   291.43806      102.51773     -3417.2576     -2983.7656     -767.37958      11395.463    
      6230   292.13083      102.52053     -3417.351      -2982.8286     -770.82337      11395.776    
      6240   294.00962      102.56104     -3418.7012     -2981.3842     -804.433        11396.074    
      6250   296.24288      102.62666     -3420.8888     -2980.25       -855.39684      11396.357    
      6260   297.52047      102.63033     -3421.0111     -2978.472      -877.23203      11396.624    
      6270   297.15483      102.61679     -3420.5597     -2978.5644     -878.31182      11396.875    
      6280   295.14952      102.57432     -3419.1441     -2980.1316     -853.44348      11397.108    
      6290   292.54856      102.50697     -3416.8991     -2981.7553     -812.69253      11397.326    
      6300   291.15946      102.48184     -3416.0613     -2982.9837     -796.67652      11397.528    
      6310   292.20402      102.47013     -3415.6711     -2981.0398     -804.15727      11397.716    
      6320   294.97228      102.55567     -3418.5222     -2979.7733     -862.24233      11397.888    
      6330   297.37194      102.60801     -3420.2671     -2977.9489     -904.08369      11398.043    
      6340   297.72341      102.59749     -3419.9162     -2977.0752     -905.07264      11398.182    
      6350   296.45938      102.57805     -3419.2683     -2978.3074     -886.33118      11398.303    
      6360   294.68418      102.5154      -3417.1801     -2978.8598     -840.92901      11398.408    
      6370   292.2414       102.47415     -3415.8051     -2981.1182     -797.04944      11398.496    
      6380   289.5247       102.41297     -3413.7658     -2983.1198     -744.39121      11398.57     
      6390   288.07636      102.39094     -3413.0313     -2984.5395     -717.6474       11398.63     
      6400   288.91535      102.38397     -3412.7992     -2983.0595     -714.1363       11398.675    
      6410   290.67527      102.45415     -3415.1385     -2982.781      -746.17466      11398.708    
      6420   290.88487      102.44544     -3414.8481     -2982.1789     -734.799        11398.726    
      6430   288.69446      102.4317      -3414.3901     -2984.9789     -704.05511      11398.731    
      6440   286.2103       102.37014     -3412.3378     -2986.6217     -656.15904      11398.722    
      6450   286.69046      102.3577      -3411.9233     -2985.493      -653.49314      11398.7      
      6460   291.23716      102.41504     -3413.8348     -2980.6416     -711.553        11398.667    
      6470   297.6873       102.48953     -3416.3177     -2973.5304     -791.46812      11398.619    
      6480   302.67046      102.54557     -3418.1856     -2967.9862     -849.33636      11398.557    
      6490   303.90289      102.54829     -3418.2764     -2966.2439     -849.50704      11398.479    
      6500   300.83207      102.53673     -3417.8911     -2970.4262     -801.81713      11398.385    
      6510   294.93956      102.46256     -3415.4185     -2976.7183     -703.47573      11398.275    
      6520   289.52313      102.32482     -3410.8272     -2980.1835     -585.15431      11398.153    
      6530   287.26558      102.29045     -3409.6818     -2982.396      -538.0356       11398.019    
      6540   289.27469      102.3132      -3410.4399     -2980.1658     -556.77645      11397.875    
      6550   295.27229      102.42807     -3414.2689     -2975.0738     -649.82567      11397.72     
      6560   302.40622      102.52091     -3417.3638     -2967.5575     -746.59742      11397.553    
      6570   306.537        102.5877      -3419.59       -2963.6394     -810.98353      11397.371    
      6580   306.16963      102.5859      -3419.5301     -2964.126      -811.44658      11397.175    
      6590   302.72407      102.52531     -3417.5103     -2967.2312     -757.93283      11396.963    
      6600   297.92649      102.44823     -3414.9411     -2971.798      -677.41507      11396.737    
      6610   292.70528      102.38063     -3412.6878     -2977.3109     -588.32332      11396.498    
      6620   288.1091       102.31081     -3410.3602     -2981.8197     -496.15765      11396.248    
      6630   285.53038      102.28757     -3409.5856     -2984.8808     -434.6314       11395.988    
      6640   286.03239      102.24805     -3408.2683     -2982.8168     -393.96169      11395.721    
      6650   289.20041      102.23331     -3407.7771     -2977.6134     -393.36321      11395.445    
      6660   293.65457      102.31696     -3410.5655     -2973.7766     -453.39256      11395.163    
      6670   298.29367      102.37588     -3412.5292     -2968.84       -516.73626      11394.871    
      6680   302.47471      102.41602     -3413.8672     -2963.959      -577.4142       11394.57     
      6690   305.82345      102.48693     -3416.231      -2961.3418     -646.1448       11394.258    
      6700   308.03606      102.48927     -3416.309      -2958.1287     -676.21306      11393.934    
      6710   308.56989      102.52516     -3417.5054     -2958.5311     -697.70993      11393.597    
      6720   306.78175      102.50211     -3416.7369     -2960.4223     -669.75208      11393.247    
      6730   303.24574      102.44066     -3414.6886     -2963.6336     -608.89344      11392.884    
      6740   300.56848      102.3805      -3412.6835     -2965.6106     -555.18116      11392.51     
      6750   301.45777      102.37475     -3412.4917     -2964.0961     -554.28036      11392.125    
      6760   306.50357      102.43624     -3414.5413     -2958.6404     -616.91098      11391.729    
      6770   313.3608       102.5215      -3417.3834     -2951.2829     -706.53029      11391.322    
      6780   317.88148      102.59891     -3419.9637     -2947.1391     -775.53293      11390.901    
      6790   316.6551       102.58077     -3419.359      -2948.3586     -761.92382      11390.466    
      6800   310.31829      102.51237     -3417.079      -2955.504      -685.49333      11390.017    
      6810   302.72804      102.39748     -3413.2493     -2962.9642     -577.55786      11389.554    
      6820   297.91313      102.29348     -3409.7826     -2966.6594     -491.76075      11389.081    
      6830   297.85275      102.29353     -3409.7842     -2966.7508     -480.77877      11388.598    
      6840   301.39626      102.37213     -3412.4044     -2964.1003     -525.56394      11388.106    
      6850   304.55291      102.4409      -3414.6966     -2961.6972     -559.08585      11387.604    
      6860   303.7107       102.41726     -3413.9087     -2962.1621     -521.25438      11387.092    
      6870   298.54863      102.32783     -3410.9277     -2966.8592     -421.19517      11386.569    
      6880   291.80238      102.19867     -3406.6222     -2972.5883     -293.21449      11386.039    
      6890   287.22125      102.14599     -3404.8664     -2977.6465     -213.64081      11385.503    
      6900   286.4126       102.16253     -3405.4175     -2979.4005     -195.65266      11384.963    
      6910   287.89013      102.25721     -3408.5737     -2980.3589     -234.88095      11384.42     
      6920   289.39544      102.29315     -3409.7715     -2979.3177     -261.17071      11383.872    
      6930   290.04884      102.30817     -3410.2723     -2978.8467     -278.76004      11383.319    
      6940   290.34199      102.30586     -3410.1953     -2978.3336     -289.9892       11382.76     
      6950   291.37958      102.31486     -3410.4954     -2977.0903     -312.35249      11382.197    
      6960   294.39938      102.30276     -3410.092      -2972.1952     -342.64155      11381.627    
      6970   300.34867      102.39446     -3413.1487     -2966.4028     -435.44024      11381.051    
      6980   308.86838      102.49379     -3416.4598     -2957.0415     -549.09393      11380.466    
      6990   317.5979       102.65572     -3421.8574     -2949.4546     -684.72852      11379.871    
      7000   323.14301      102.74559     -3424.853      -2944.2023     -761.36575      11379.264    
      7010   323.10556      102.73441     -3424.4803     -2943.8853     -745.11647      11378.642    
      7020   317.21107      102.66939     -3422.3128     -2950.4854     -651.14177      11378.006    
      7030   307.52654      102.5033      -3416.7768     -2959.3544     -479.9347       11377.358    
      7040   297.48853      102.35193     -3411.7311     -2969.2395     -309.92014      11376.7      
      7050   290.70924      102.23464     -3407.8213     -2975.4134     -181.6888       11376.037    
      7060   288.7179       102.2297      -3407.6566     -2978.2106     -141.61835      11375.37     
      7070   290.76229      102.21509     -3407.1696     -2974.6827     -138.7967       11374.701    
      7080   295.13873      102.27922     -3409.3073     -2970.3108     -190.65008      11374.028    
      7090   299.94054      102.37361     -3412.4536     -2966.3148     -260.63406      11373.353    
      7100   304.68219      102.42373     -3414.1245     -2960.9328     -311.08966      11372.672    
      7110   309.90932      102.49708     -3416.5693     -2955.6026     -367.51655      11371.985    
      7120   314.82851      102.56983     -3418.9943     -2950.7108     -414.33341      11371.292    
      7130   317.38787      102.60661     -3420.2204     -2948.13       -424.58394      11370.591    
      7140   317.04492      102.61103     -3420.3677     -2948.7874     -397.81747      11369.882    
      7150   315.08452      102.56317     -3418.7724     -2950.108      -335.4189       11369.166    
      7160   312.10372      102.48017     -3416.0057     -2951.775      -250.11584      11368.443    
      7170   308.5123       102.45501     -3415.167      -2956.2783     -182.17201      11367.715    
      7180   304.97055      102.40308     -3413.4361     -2959.8155     -106.25933      11366.985    
      7190   301.4312       102.33544     -3411.1815     -2962.8254     -30.264565      11366.252    
      7200   297.77209      102.25417     -3408.4725     -2965.5591      42.691547      11365.519    
      7210   295.07701      102.27052     -3409.0173     -2970.1126      59.557391      11364.786    
      7220   294.80852      102.27636     -3409.2119     -2970.7065      51.434004      11364.055    
      7230   296.87115      102.27431     -3409.1437     -2967.5704      20.220466      11363.324    
      7240   299.69412      102.31944     -3410.648      -2964.8757     -36.044758      11362.594    
      7250   300.89282      102.35172     -3411.7241     -2964.1688     -69.295366      11361.864    
      7260   299.00516      102.29755     -3409.9183     -2965.1708     -35.156182      11361.132    
      7270   294.64105      102.24512     -3408.1707     -2969.9145      28.448788      11360.4      
      7280   290.6128       102.20571     -3406.8571     -2974.5926      90.531882      11359.668    
      7290   290.15332      102.18115     -3406.0383     -2974.4572      117.8374       11358.937    
      7300   294.62894      102.23954     -3407.9847     -2969.7464      67.777474      11358.209    
      7310   302.64365      102.39521     -3413.1737     -2963.0142     -55.17956       11357.482    
      7320   310.77496      102.47784     -3415.9281     -2953.6739     -155.94609      11356.754    
      7330   316.11895      102.52993     -3417.6643     -2947.4614     -222.20839      11356.023    
      7340   318.13346      102.551       -3418.3667     -2945.1673     -242.71747      11355.288    
      7350   318.33798      102.54067     -3418.0223     -2944.5186     -223.5294       11354.549    
      7360   317.7153       102.55325     -3418.4417     -2945.8643     -193.41783      11353.806    
      7370   315.40034      102.48894     -3416.2979     -2947.1638     -113.12798      11353.059    
      7380   310.65518      102.45462     -3415.154      -2953.078      -27.022728      11352.31     
      7390   304.66042      102.33826     -3411.2755     -2958.1162      90.305536      11351.561    
      7400   299.93365      102.2452      -3408.1734     -2962.0449      172.85834      11350.813    
      7410   299.50642      102.22551     -3407.517      -2962.0239      179.6843       11350.068    
      7420   304.64538      102.31804     -3410.6015     -2957.4646      92.77285       11349.327    
      7430   313.12118      102.46164     -3415.3879     -2949.6439     -39.750487      11348.587    
      7440   321.02667      102.53356     -3417.7853     -2940.2825     -135.29747      11347.847    
      7450   325.75351      102.60066     -3420.0219     -2935.4883     -191.90287      11347.104    
      7460   325.29269      102.5886      -3419.62       -2935.7718     -163.45863      11346.358    
      7470   318.61894      102.48968     -3416.3227     -2942.4012     -43.337869      11345.609    
      7480   307.06213      102.34023     -3411.3409     -2954.6093      134.85226      11344.859    
      7490   294.58312      102.16915     -3405.6383     -2967.4682      320.20492      11344.112    
      7500   286.21723      102.04906     -3401.6354     -2975.9089      442.5494       11343.371    
      7510   283.45127      112.02985     -3400.9951     -2979.3828      535.28775      11342.638    
      7520   283.42516      112.02039     -3400.6797     -2979.1062      544.33706      11341.916    
      7530   284.29768      111.99433     -3399.8108     -2976.9396      556.08565      11341.204    
      7540   284.74692      112.02809     -3400.9363     -2977.3969      552.94736      11340.502    
      7550   285.47531      112.04676     -3401.5587     -2976.9358      556.10479      11339.811    
[...]
      8180   299.10809      102.41929     -3413.9765     -2969.0759      686.57577      11308.744    
      8190   303.22409      102.48672     -3416.2239     -2965.201       618.54687      11308.529    
      8200   305.84502      102.52344     -3417.448      -2962.5267      571.71009      11308.326    
      8210   306.86772      102.52794     -3417.5979     -2961.1554      549.70237      11308.133    
      8220   308.33349      102.57481     -3419.1602     -2960.5375      510.63625      11307.951    
      8230   311.80311      102.60491     -3420.1635     -2956.38        464.87713      11307.778    
      8240   316.02952      102.67826     -3422.6088     -2952.5388      399.86425      11307.614    
      8250   317.89157      102.74319     -3424.7731     -2951.9335      360.82871      11307.457    
      8260   315.54012      102.70035     -3423.3449     -2954.0029      402.4039       11307.308    
      8270   309.55302      102.60603     -3420.2011     -2959.7644      498.38515      11307.166    
      8280   302.94194      102.50615     -3416.8715     -2966.2683      603.8644       11307.033    
      8290   299.49405      102.43093     -3414.3644     -2968.8897      674.55909      11306.912    
      8300   300.4538       102.44268     -3414.7561     -2967.8539      670.4623       11306.803    
      8310   304.9387       102.55551     -3418.517      -2964.9438      588.69625      11306.706    
      8320   311.24896      102.59376     -3419.792      -2956.8328      510.971        11306.621    
      8330   318.08849      102.644       -3421.4666     -2948.3341      420.88893      11306.545    
      8340   324.57052      102.73633     -3424.5443     -2941.7702      321.98199      11306.478    
      8350   328.9393       102.765       -3425.5001     -2936.2278      275.298        11306.416    
      8360   328.41646      102.7782      -3425.9401     -2937.4455      285.89763      11306.36     
      8370   321.68206      102.66895     -3422.2983     -2943.8206      400.52986      11306.309    
      8380   310.96005      102.51867     -3417.2889     -2954.7594      565.3418       11306.266    
      8390   299.93515      102.36397     -3412.1322     -2966.0014      729.61692      11306.234    
      8400   292.41462      102.26278     -3408.7593     -2973.8147      834.53558      11306.215    
      8410   290.83843      102.25603     -3408.5344     -2975.9343      842.16977      11306.212    
      8420   294.73268      102.3128      -3410.4267     -2972.0341      770.65966      11306.225    
      8430   301.33446      102.40297     -3413.4322     -2965.22        659.01889      11306.252    
      8440   307.39427      102.52836     -3417.6119     -2960.3862      538.0625       11306.291    
      8450   311.15566      102.58725     -3419.575      -2956.7545      466.84419      11306.341    
      8460   312.57342      102.58281     -3419.4271     -2954.4978      446.92161      11306.399    
      8470   312.48527      102.54755     -3418.2517     -2953.4536      456.98159      11306.466    
      8480   311.67944      102.51717     -3417.2391     -2953.6396      470.9654       11306.542    
      8490   310.66836      102.5192      -3417.3066     -2955.211       469.55284      11306.627    
      8500   310.20572      102.53365     -3417.7883     -2956.3808      453.94106      11306.72     
      8510   310.93422      102.58986     -3419.662      -2957.1709      410.00758      11306.822    
      8520   312.44302      102.6423      -3421.41       -2956.6747      363.37956      11306.932    
      8530   313.13167      102.67046     -3422.3486     -2956.5889      338.14828      11307.048    
      8540   311.84975      102.66069     -3422.0231     -2958.1702      349.49864      11307.171    
      8550   309.10863      102.62071     -3420.6903     -2960.9147      391.16082      11307.301    
      8560   306.164        102.52643     -3417.5478     -2962.152       460.41224      11307.438    
      8570   304.65186      102.50136     -3416.712      -2963.5654      491.82936      11307.584    
      8580   306.2874       102.54012     -3418.0041     -2962.4248      470.33038      11307.74     
      8590   310.79288      102.57545     -3419.1817     -2956.9008      423.89076      11307.904    
      8600   315.51722      102.67334     -3422.4448     -2953.1368      346.78989      11308.076    
      8610   318.17388      102.72003     -3424.0011     -2950.7416      304.01247      11308.254    
      8620   317.72453      102.71928     -3423.9759     -2951.3848      304.07484      11308.439    
      8630   314.94166      102.67118     -3422.3727     -2953.9209      341.97204      11308.629    
      8640   311.25351      102.61716     -3420.5718     -2957.6058      390.46401      11308.826    
      8650   307.23479      102.562       -3418.7335     -2961.745       439.26794      11309.03     
      8660   303.47798      102.49512     -3416.5042     -2965.1037      487.67423      11309.243    
      8670   301.07846      102.46078     -3415.3593     -2967.5279      509.3147       11309.465    
      8680   301.77745      102.48552     -3416.1839     -2967.3128      482.79525      11309.696    
      8690   305.41348      102.52752     -3417.5841     -2963.3047      426.86163      11309.937    
      8700   309.78766      102.57295     -3419.0983     -2958.3126      367.23528      11310.186    
      8710   312.99999      102.65598     -3421.866      -2956.3023      308.77343      11310.441    
      8720   314.44721      102.6845      -3422.8168     -2955.1004      295.93437      11310.703    
      8730   313.50838      102.67657     -3422.5524     -2956.2325      324.92241      11310.971    
      8740   310.33437      102.6425      -3421.4165     -2959.8177      385.34522      11311.245    
      8750   306.30196      102.58745     -3419.5815     -2963.9806      456.92521      11311.526    
      8760   302.82133      102.5369      -3417.8965     -2967.4727      512.77683      11311.816    
      8770   300.24835      102.46476     -3415.4919     -2968.8952      557.85015      11312.116    
      8780   298.73214      102.44419     -3414.8062     -2970.4648      564.16092      11312.426    
      8790   298.95015      102.43037     -3414.3456     -2969.6799      549.38529      11312.747    
      8800   300.68518      102.45144     -3415.0481     -2967.8017      510.1047       11313.078    
      8810   303.04839      102.49403     -3416.4677     -2965.7062      462.21993      11313.419    
      8820   305.84254      102.5037      -3416.7901     -2961.8725      430.17496      11313.769    
      8830   308.76639      102.57073     -3419.0243     -2959.7577      381.37191      11314.127    
      8840   310.52536      102.58057     -3419.3523     -2957.4693      366.98247      11314.492    
      8850   310.13906      102.60901     -3420.3002     -2958.9918      362.11924      11314.865    
      8860   308.04658      102.56008     -3418.6693     -2960.4734      400.39437      11315.244    
      8870   304.6491       102.53079     -3417.6931     -2964.5506      438.36514      11315.632    
      8880   300.50197      102.47035     -3415.6784     -2968.7045      488.25998      11316.027    
      8890   297.69947      102.44613     -3414.8709     -2972.0654      505.42716      11316.432    
      8900   299.24836      102.45669     -3415.223      -2970.1138      469.48197      11316.847    
      8910   305.53137      102.57896     -3419.2987     -2964.8439      349.82188      11317.27     
      8920   314.13982      102.68562     -3422.8541     -2955.595       216.57793      11317.701    
      8930   322.17757      102.81533     -3427.1778     -2947.9631      82.083841      11318.135    
      8940   327.1341       102.89432     -3429.8108     -2943.2236      0.31559923     11318.572    
      8950   326.63559      102.86231     -3428.7437     -2942.898       14.640194      11319.008    
      8960   320.13378      102.80161     -3426.7203     -2950.5455      95.515005      11319.446    
      8970   310.11793      102.62818     -3420.9394     -2959.6625      251.79769      11319.885    
      8980   300.41258      102.48726     -3416.2421     -2969.4012      393.15283      11320.33     
      8990   293.14926      102.38763     -3412.921      -2976.8837      492.86329      11320.781    
      9000   288.75101      102.31978     -3410.6592     -2981.1639      546.38305      11321.242    
      9010   287.7994       102.35958     -3411.9859     -2983.9061      518.37129      11321.714    
      9020   291.20901      102.39476     -3413.1585     -2980.0072      449.5774       11322.195    
      9030   298.18378      102.47251     -3415.7504     -2972.2246      333.92825      11322.685    
      9040   306.16134      102.6091      -3420.3034     -2964.9116      190.76466      11323.182    
      9050   311.58795      102.71094     -3423.6981     -2960.2346      86.20126       11323.682    
      9060   311.97726      102.70426     -3423.4754     -2959.4329      67.854592      11324.184    
      9070   308.22569      102.63434     -3421.1447     -2962.6823      109.12357      11324.688    
      9080   304.09705      102.59816     -3419.9387     -2967.6174      142.69525      11325.194    
      9090   302.2346       102.56108     -3418.7025     -2969.1515      162.44217      11325.703    
      9100   302.32279      102.57352     -3419.1174     -2969.4352      151.17122      11326.216    
      9110   303.07847      102.58038     -3419.3461     -2968.5399      137.96695      11326.731    
      9120   303.73085      102.61325     -3420.4416     -2968.665       116.11544      11327.249    
      9130   303.60282      102.65        -3421.6666     -2970.0804      98.325307      11327.77     
      9140   302.69899      102.62755     -3420.9185     -2970.6767      107.46679      11328.292    
      9150   302.08929      102.60566     -3420.1887     -2970.8537      112.59059      11328.817    
      9160   302.51558      102.60751     -3420.2503     -2970.2814      100.95868      11329.344    
      9170   302.94239      102.6291      -3420.9701     -2970.3662      84.948244      11329.874    
      9180   300.76039      102.57539     -3419.1796     -2971.8213      120.17749      11330.405    
      9190   295.00082      102.50252     -3416.7505     -2977.9591      188.46981      11330.939    
      9200   288.51449      102.43826     -3414.6087     -2985.4653      253.32571      11331.477    
      9210   285.54215      102.40002     -3413.3341     -2988.6118      272.7604       11332.019    
      9220   287.82807      102.42207     -3414.069      -2985.9465      219.51168      11332.567    
      9230   293.96801      102.5344      -3417.8133     -2980.5582      96.107246      11333.119    
      9240   301.06641      102.6221      -3420.7365     -2972.9231     -24.438443      11333.673    
      9250   305.99145      102.70042     -3423.3472     -2968.2081     -116.15517      11334.227    
      9260   306.36662      102.74471     -3424.8236     -2969.1264     -150.87941      11334.779    
      9270   303.23763      102.7236      -3424.1201     -2973.0771     -124.76662      11335.329    
      9280   299.84095      102.68658     -3422.8858     -2976.8951     -84.025869      11335.877    
      9290   297.85738      102.64746     -3421.5821     -2978.5418     -51.124205      11336.423    
      9300   296.21166      102.61745     -3420.5817     -2979.9893     -27.989563      11336.968    
      9310   294.33552      102.52476     -3417.492      -2979.6902      14.530897      11337.514    
      9320   293.24748      102.54263     -3418.0876     -2981.9042      2.1407101      11338.059    
      9330   293.75504      102.54934     -3418.3115     -2981.3731     -22.510789      11338.606    
      9340   295.38807      102.57713     -3419.2378     -2979.8705     -64.21672       11339.151    
      9350   296.59359      102.59444     -3419.8146     -2978.6541     -95.223607      11339.696    
      9360   296.16404      102.62234     -3420.7446     -2980.223      -112.31183      11340.24     
      9370   294.8731       102.54621     -3418.2069     -2979.6055     -76.290564      11340.782    
      9380   294.8159       102.57576     -3419.1919     -2980.6756     -85.437341      11341.322    
      9390   297.01362      102.61211     -3420.4037     -2978.6185     -113.42873      11341.862    
      9400   300.91005      102.69019     -3423.0062     -2975.4253     -172.25771      11342.399    
      9410   305.16442      102.7896      -3426.3199     -2972.4109     -244.49128      11342.933    
      9420   307.81044      102.81318     -3427.106      -2969.2613     -276.94923      11343.463    
      9430   307.67791      102.77855     -3425.9515     -2968.304      -266.55529      11343.989    
      9440   305.1402       102.77417     -3425.8056     -2971.9326     -246.99193      11344.509    
      9450   300.52659      102.67105     -3422.3684     -2975.3579     -171.39612      11345.025    
      9460   294.2077       102.56551     -3418.8503     -2981.2386     -80.884387      11345.539    
      9470   287.19501      102.44556     -3414.852      -2987.6712      19.254364      11346.051    
      9480   281.17309      102.33278     -3411.0926     -2992.869       102.05745      11346.563    
      9490   278.30359      102.2917      -3409.7232     -2995.7677      119.03694      11347.077    
      9500   281.04758      102.32016     -3410.6719     -2992.6349      53.853917      11347.594    
      9510   289.66459      102.46176     -3415.392      -2984.5379     -104.69936      11348.112    
      9520   300.16655      102.63237     -3421.0791     -2974.6041     -285.05062      11348.628    
      9530   306.26237      102.70432     -3423.4774     -2967.9353     -384.64704      11349.139    
      9540   304.77835      102.69205     -3423.0682     -2969.7336     -383.25781      11349.644    
      9550   298.46099      102.57832     -3419.2775     -2975.3394     -296.28069      11350.141    
      9560   292.88927      102.53126     -3417.7087     -2982.0581     -235.26431      11350.633    
      9570   291.71754      102.47241     -3415.7471     -2981.8393     -203.19468      11351.121    
      9580   295.03582      102.48991     -3416.3305     -2977.487      -237.89367      11351.605    
      9590   300.23024      102.57554     -3419.1846     -2972.6149     -315.1942       11352.085    
      9600   303.4333       102.6781      -3422.6034     -2971.2694     -383.9501       11352.559    
      9610   302.3775       102.67226     -3422.4086     -2972.645      -376.17295      11353.026    
      9620   297.77444      102.67137     -3422.379      -2979.4621     -341.46437      11353.486    
      9630   292.97291      102.5806      -3419.3533     -2983.5783     -272.06806      11353.941    
      9640   292.08053      102.57317     -3419.1056     -2984.6579     -266.74261      11354.39     
      9650   296.02788      102.6515      -3421.7168     -2981.3978     -332.31002      11354.834    
      9660   301.49535      102.71759     -3423.9197     -2975.4682     -403.8006       11355.273    
      9670   304.49452      102.71832     -3423.9441     -2971.0316     -427.31002      11355.704    
      9680   303.61832      102.73087     -3424.3625     -2972.7532     -418.57926      11356.127    
      9690   300.11085      102.6559      -3421.8632     -2975.4711     -349.0776       11356.542    
      9700   296.25433      102.60721     -3420.2404     -2979.5845     -281.15754      11356.952    
      9710   292.85987      102.56558     -3418.8525     -2983.2457     -217.25477      11357.356    
      9720   288.81809      102.51797     -3417.2657     -2987.6707     -152.02682      11357.756    
      9730   284.09625      102.4087      -3413.6233     -2991.0517     -71.221208      11358.154    
      9740   281.31324      102.3407      -3411.3566     -2992.9245     -38.807717      11358.55     
      9750   283.71464      102.35946     -3411.982      -2989.978      -94.989703      11358.946    
      9760   291.43159      102.51051     -3417.017      -2983.5345     -251.93883      11359.34     
      9770   301.10485      102.65605     -3421.8684     -2973.9977     -420.4489       11359.73     
      9780   308.43438      102.76605     -3425.5349     -2966.7621     -547.37101      11360.112    
      9790   311.13553      102.79747     -3426.5825     -2963.7919     -590.88943      11360.484    
      9800   308.7155       102.7822      -3426.0734     -2966.8825     -559.86992      11360.845    
      9810   302.06787      102.70236     -3423.4119     -2974.1088     -462.37872      11361.196    
      9820   293.56136      102.55072     -3418.3575     -2981.7072     -322.51332      11361.538    
      9830   286.12193      102.4471      -3414.9033     -2989.3186     -217.66492      11361.875    
      9840   282.34919      102.39933     -3413.3111     -2993.3381     -175.41072      11362.207    
      9850   283.4584       102.38644     -3412.8814     -2991.2585     -197.55034      11362.537    
      9860   288.65232      102.46336     -3415.4452     -2986.0967     -295.65337      11362.863    
      9870   295.25276      102.60121     -3420.0403     -2980.8742     -431.07621      11363.183    
      9880   299.89421      102.66983     -3422.3276     -2976.2577     -520.04664      11363.495    
      9890   300.42622      102.67566     -3422.5219     -2975.6606     -543.5344       11363.798    
      9900   297.28975      102.66884     -3422.2947     -2980.0987     -522.83099      11364.091    
      9910   292.80309      102.62958     -3420.9861     -2985.4637     -470.05635      11364.374    
      9920   288.79263      102.56597     -3418.8655     -2989.3084     -407.08787      11364.648    
      9930   285.56646      102.51834     -3417.278      -2992.5195     -358.97159      11364.915    
      9940   283.25301      102.47266     -3415.7554     -2994.438      -325.66951      11365.175    
      9950   282.09323      102.4564      -3415.2134     -2995.6211     -321.12989      11365.43     
      9960   282.42122      102.46665     -3415.555      -2995.4748     -344.68511      11365.678    
      9970   284.36598      102.46599     -3415.533      -2992.5601     -378.42809      11365.92     
      9980   286.92541      102.54176     -3418.0588     -2991.279      -443.30863      11366.154    
      9990   288.10764      102.59651     -3419.8836     -2991.3453     -483.01933      11366.381    
     10000   286.64805      102.53191     -3417.7304     -2991.3632     -450.25174      11366.599    
Loop time of 2.05831 on 1 procs for 10000 steps with 500 atoms

Performance: 419.761 ns/day, 0.057 hours/ns, 4858.345 timesteps/s, 2.429 Matom-step/s
98.5% CPU use with 1 MPI tasks x 1 OpenMP threads

MPI task timing breakdown:
Section |  min time  |  avg time  |  max time  |%varavg| %total
---------------------------------------------------------------
Pair    | 1.7268     | 1.7268     | 1.7268     |   0.0 | 83.89
Bond    | 0.00051563 | 0.00051563 | 0.00051563 |   0.0 |  0.03
Neigh   | 0.014654   | 0.014654   | 0.014654   |   0.0 |  0.71
Comm    | 0.055116   | 0.055116   | 0.055116   |   0.0 |  2.68
Output  | 0.0067243  | 0.0067243  | 0.0067243  |   0.0 |  0.33
Modify  | 0.16659    | 0.16659    | 0.16659    |   0.0 |  8.09
Other   |            | 0.08792    |            |       |  4.27

Nlocal:            500 ave         500 max         500 min
Histogram: 1 0 0 0 0 0 0 0 0 0
Nghost:           1637 ave        1637 max        1637 min
Histogram: 1 0 0 0 0 0 0 0 0 0
Neighs:          15009 ave       15009 max       15009 min
Histogram: 1 0 0 0 0 0 0 0 0 0

Total # of neighbors = 15009
Ave neighs/atom = 30.018
Ave special neighs/atom = 0
Neighbor list builds = 20
Dangerous builds = 0

#write_data      ${rep}/lj-out.data
Total wall time: 0:00:02
