print           "This is replica: ${rep}"
This is replica: 1

read_data       ${rep}/lj.data
read_data       1/lj.data
Reading data file ...
  orthogonal box = (1.2618102 1.2618102 1.2618102) to (23.73819 23.73819 23.73819)
  1 by 1 by 1 MPI processor grid
  reading atoms ...
  500 atoms
  reading velocities ...
  500 velocities
Finding 1-2 1-3 1-4 neighbors ...
  special bond factors lj:    0        0        0       
  special bond factors coul:  0        0        0       
     0 = max # of 1-2 neighbors
     0 = max # of 1-3 neighbors
     0 = max # of 1-4 neighbors
     1 = max # of special neighbors
  special bonds CPU = 0.000 seconds
  read_data CPU = 0.015 seconds

#dump            dump all xyz 1000 ${rep}/dump.xyz

fix             fxnpt all npt temp ${T0} ${T0} 1000.0 iso ${press} ${press} 10000.0
fix             fxnpt all npt temp 300 ${T0} 1000.0 iso ${press} ${press} 10000.0
fix             fxnpt all npt temp 300 300 1000.0 iso ${press} ${press} 10000.0
fix             fxnpt all npt temp 300 300 1000.0 iso 0 ${press} 10000.0
fix             fxnpt all npt temp 300 300 1000.0 iso 0 0 10000.0
fix             fxgREM all grem ${lambda} -.03 -30000 fxnpt
fix             fxgREM all grem 910 -.03 -30000 fxnpt

thermo          10
thermo_style    custom step temp f_fxgREM pe etotal press vol
thermo_modify   press fxgREM_press
timestep        1.0

temper/grem     10000 100 ${lambda} fxgREM fxnpt 10294 98392 #${walker}
temper/grem     10000 100 910 fxgREM fxnpt 10294 98392 

CITE-CITE-CITE-CITE-CITE-CITE-CITE-CITE-CITE-CITE-CITE-CITE-CITE

Your simulation uses code contributions which should be cited:

- Type Label Framework: https://doi.org/10.1021/acs.jpcb.3c08419

@Article{Gissinger24,
 author = {Jacob R. Gissinger, Ilia Nikiforov, Yaser Afshar, Brendon Waters, Moon-ki Choi, Daniel S. Karls, Alexander Stukowski, Wonpil Im, Hendrik Heinz, Axel Kohlmeyer, and Ellad B. Tadmor},
 title = {Type Label Framework for Bonded Force Fields in LAMMPS},
 journal = {J. Phys. Chem. B},
 year =    2024,
 volume =  128,
 number =  13,
 pages =   {3282--3297}
}

CITE-CITE-CITE-CITE-CITE-CITE-CITE-CITE-CITE-CITE-CITE-CITE-CITE

Generated 0 of 0 mixed pair_coeff terms from geometric mixing rule
Neighbor list info ...
  update: every = 1 steps, delay = 0 steps, check = yes
  max neighbors/atom: 2000, page size: 100000
  master list distance cutoff = 7
  ghost atom cutoff = 7
  binsize = 3.5, bins = 7 7 7
  1 neighbor lists, perpetual/occasional/extra = 1 0 0
  (1) pair lj/cut, perpetual
      attributes: half, newton on
      pair build: half/bin/newton
      stencil: half/bin/3d
      bin: standard
Per MPI rank memory allocation (min/avg/max) = 6.093 | 6.093 | 6.093 Mbytes
   Step          Temp         f_fxgREM        PotEng         TotEng         Press          Volume    
         0   288.55656      112.20301     -3406.7669     -2977.5609      178.123        11354.789    
        10   288.31142      112.19886     -3406.6287     -2977.7873      169.48588      11354.791    
        20   289.8223       112.2004      -3406.6801     -2975.5914      143.01529      11354.796    
        30   291.70552      112.20808     -3406.9361     -2973.0463      110.8117       11354.803    
        40   292.3991       112.19188     -3406.3961     -2971.4746      97.59108       11354.813    
        50   292.5823       112.21058     -3407.0193     -2971.8253      77.445997      11354.825    
        60   293.92951      112.21708     -3407.2359     -2970.038       57.796925      11354.839    
        70   296.04201      112.2877      -3409.5899     -2969.2498      13.813262      11354.853    
        80   296.75737      112.29156     -3409.7185     -2968.3144      11.768377      11354.868    
        90   295.13393      112.24842     -3408.2806     -2969.2912      48.892516      11354.883    
       100   292.15246      112.19841     -3406.6138     -2972.0592      101.12118      11354.9      
       110   289.12918      112.15164     -3405.0545     -2974.9968      152.32112      11354.918    
       120   287.27614      112.08096     -3402.6986     -2975.3971      202.34448      11354.939    
       130   287.42356      112.0831      -3402.7702     -2975.2494      207.66366      11354.964    
       140   289.21304      112.14415     -3404.805      -2974.6225      176.73504      11354.993    
       150   291.22694      112.2208      -3407.3598     -2974.1818      138.21308      11355.025    
       160   291.80864      112.23001     -3407.6671     -2973.6238      136.42715      11355.06     
       170   290.14949      112.24531     -3408.1771     -2976.6018      147.29695      11355.098    
       180   287.065        112.19729     -3406.5763     -2979.5888      189.14925      11355.138    
       190   284.67722      112.11349     -3403.7829     -2980.3472      235.98121      11355.182    
       200   284.76862      112.11444     -3403.8146     -2980.2429      229.79573      11355.231    
       210   287.30419      112.19165     -3406.3882     -2979.045       178.21548      11355.284    
       220   290.24395      112.2716      -3409.0533     -2977.3374      128.25365      11355.34     
       230   291.75321      112.26847     -3408.9488     -2974.988       127.53254      11355.399    
       240   291.56611      112.2409      -3408.0299     -2974.3474      156.55866      11355.46     
       250   289.54023      112.18263     -3406.0877     -2975.4185      212.96181      11355.524    
       260   286.70204      112.15809     -3405.2697     -2978.8221      257.81878      11355.593    
       270   285.29412      112.15348     -3405.116      -2980.7626      275.83499      11355.666    
       280   286.55922      112.15001     -3405.0004     -2978.7653      263.53389      11355.745    
       290   289.68571      112.21705     -3407.235      -2976.3495      203.10589      11355.828    
       300   292.70866      112.2666      -3408.8868     -2973.5048      148.36274      11355.915    
       310   294.49833      112.29547     -3409.8489     -2971.805       116.28626      11356.006    
       320   295.01935      112.26366     -3408.7888     -2969.9699      129.00986      11356.098    
       330   293.62813      112.22757     -3407.5858     -2970.8362      172.06752      11356.194    
       340   289.75352      112.17365     -3405.7882     -2974.8018      251.16266      11356.292    
       350   284.9766       112.09285     -3403.095      -2979.2139      349.23878      11356.395    
       360   281.808        112.02318     -3400.7725     -2981.6045      424.34691      11356.505    
       370   281.86442      111.99526     -3399.8422     -2980.5902      446.36449      11356.624    
       380   285.76791      112.05908     -3401.9692     -2976.9111      388.95847      11356.75     
       390   292.89969      112.11359     -3403.7864     -2968.1203      299.94431      11356.884    
       400   300.34778      112.22465     -3407.4882     -2960.7437      182.6926       11357.023    
       410   304.41529      112.31486     -3410.4955     -2957.7008      100.45891      11357.166    
       420   303.85523      112.30407     -3410.1357     -2958.1741      95.683996      11357.312    
       430   300.8177       112.25584     -3408.5282     -2961.0846      126.71171      11357.459    
       440   298.33702      112.2643      -3408.81       -2965.0563      131.9777       11357.609    
       450   297.59571      112.2703      -3409.0101     -2966.359       123.84024      11357.761    
       460   297.63339      112.29318     -3409.7727     -2967.0656      102.39302      11357.915    
       470   297.08501      112.30628     -3410.2094     -2968.318       91.981797      11358.072    
       480   294.93504      112.27289     -3409.0962     -2970.4027      117.35537      11358.23     
       490   290.85588      112.17179     -3405.7263     -2973.1002      189.81578      11358.391    
       500   285.96958      112.05725     -3401.9084     -2976.5503      276.48764      11358.555    
       510   282.89089      111.98876     -3399.6255     -2978.8467      332.129        11358.725    
       520   282.00744      111.95279     -3398.4262     -2978.9616      356.71862      11358.901    
       530   281.59614      111.97985     -3399.3285     -2980.4756      348.09153      11359.084    
       540   282.13201      112.00288     -3400.0961     -2980.4461      327.29357      11359.273    
       550   285.29888      112.05398     -3401.7993     -2977.4388      270.23901      11359.468    
       560   290.61917      112.13693     -3404.5642     -2972.2902      180.90521      11359.669    
       570   296.03638      112.19785     -3406.595      -2966.2634      98.363649      11359.873    
       580   300.53955      112.26319     -3408.7731     -2961.7433      23.471403      11360.079    
       590   304.57577      112.35226     -3411.742      -2958.7086     -51.004703      11360.286    
       600   307.70363      112.41438     -3413.8127     -2956.1269     -99.607994      11360.491    
       610   307.44583      112.41197     -3413.7324     -2956.43       -89.383315      11360.696    
       620   302.60369      112.36056     -3412.0186     -2961.9186     -20.803872      11360.898    
       630   295.45305      112.247       -3408.2332     -2968.7692      89.07956       11361.1      
       640   288.99899      112.14529     -3404.8429     -2974.9788      184.66804      11361.304    
       650   284.34816      112.06978     -3402.326      -2979.3797      248.47621      11361.512    
       660   281.61768      111.99079     -3399.693      -2980.808       291.28362      11361.724    
       670   280.81536      112.02281     -3400.7602     -2983.0687      272.95156      11361.941    
       680   281.12884      112.05754     -3401.9179     -2983.7601      245.74977      11362.164    
       690   281.63059      112.06374     -3402.1247     -2983.2205      231.14718      11362.392    
       700   282.68254      112.07111     -3402.3703     -2981.9015      215.5575       11362.624    
       710   285.68215      112.10303     -3403.4343     -2978.5038      179.44707      11362.861    
       720   291.09694      112.17911     -3405.9702     -2972.9856      111.08219      11363.1      
       730   296.71272      112.25456     -3408.4854     -2967.1477      43.653942      11363.342    
       740   298.96027      112.34077     -3411.3589     -2966.6782      0.050464674    11363.585    
       750   296.12078      112.2671      -3408.9034     -2968.4462      55.597566      11363.828    
       760   290.41608      112.14959     -3404.9862     -2973.0143      143.73796      11364.073    
       770   286.1551       112.06808     -3402.2692     -2976.6351      197.54285      11364.32     
       780   286.44294      112.0939      -3403.1301     -2977.068       167.02225      11364.57     
       790   291.06114      112.11696     -3403.8987     -2970.9673      101.3434       11364.824    
       800   296.16503      112.19146     -3406.3822     -2965.8591      17.711943      11365.08     
       810   297.57171      112.16869     -3405.6231     -2963.0078      11.137253      11365.337    
       820   295.03751      112.10778     -3403.5928     -2964.7468      62.451883      11365.594    
       830   291.34016      112.06299     -3402.0997     -2968.7533      126.42423      11365.852    
       840   288.62469      112.02668     -3400.8893     -2971.5819      181.92793      11366.113    
       850   287.67279      111.9803      -3399.3435     -2971.452       221.9146       11366.377    
       860   288.99041      112.00322     -3400.1075     -2970.2561      209.50242      11366.645    
       870   292.17679      112.03354     -3401.1182     -2966.5273      174.67133      11366.918    
       880   295.4045       112.08029     -3402.6762     -2963.2844      133.67382      11367.193    
       890   296.65916      112.12164     -3404.0548     -2962.7968      113.88852      11367.472    
       900   295.12557      112.10468     -3403.4892     -2964.5123      140.26681      11367.752    
       910   291.92326      112.00466     -3400.1554     -2965.9417      209.39051      11368.036    
       920   289.32896      111.97002     -3399.0005     -2968.6456      241.04063      11368.324    
       930   289.67808      111.96062     -3398.6874     -2967.8132      228.95616      11368.616    
       940   294.30447      112.06593     -3402.1978     -2964.4422      130.72034      11368.912    
       950   301.51376      112.13138     -3404.3793     -2955.9004      25.930655      11369.211    
       960   306.83835      112.27984     -3409.328      -2952.9292     -90.729397      11369.51     
       970   307.44443      112.29418     -3409.8058     -2952.5055     -109.4997       11369.808    
       980   304.50587      112.27687     -3409.2291     -2956.2997     -78.039014      11370.105    
       990   301.061        112.21178     -3407.0595     -2959.254      -14.948722      11370.4      
      1000   298.6585       112.14835     -3404.9449     -2960.713       43.90578       11370.694    
      1010   297.04105      112.14151     -3404.717      -2962.891       73.607754      11370.99     
      1020   295.60032      112.09809     -3403.2698     -2963.5867      110.94095      11371.287    
      1030   293.93422      112.05878     -3401.9593     -2964.7544      140.12922      11371.587    
      1040   292.24938      112.00738     -3400.246      -2965.5472      164.3268       11371.889    
      1050   291.3431       111.98468     -3399.4893     -2966.1385      163.90118      11372.194    
      1060   291.75406      112.00757     -3400.2523     -2966.2902      132.58601      11372.503    
      1070   293.49978      112.03288     -3401.096      -2964.5373      90.85724       11372.814    
      1080   296.32554      112.08794     -3402.9315     -2962.1697      34.772417      11373.127    
      1090   298.98475      112.08891     -3402.9635     -2958.2463      8.9169594      11373.44     
      1100   299.98228      112.09762     -3403.2541     -2957.0532      1.921394       11373.754    
      1110   298.93329      112.06042     -3402.0141     -2957.3735      35.357673      11374.069    
      1120   296.72755      112.04724     -3401.5748     -2960.2151      70.400055      11374.384    
      1130   295.27479      112.02293     -3400.7644     -2961.5655      100.44702      11374.7      
      1140   296.45575      112.02274     -3400.7582     -2959.8027      95.628219      11375.019    
      1150   299.73163      112.07328     -3402.4427     -2956.6146      50.691942      11375.339    
      1160   302.04111      112.15105     -3405.035      -2955.7717      0.83461815     11375.661    
      1170   300.54802      112.07463     -3402.4876     -2955.4452      40.880794      11375.982    
      1180   294.88174      111.98791     -3399.597      -2960.9827      118.98917      11376.305    
      1190   287.72924      111.90414     -3396.8047     -2968.8293      206.79649      11376.63     
      1200   283.05821      111.79872     -3393.2908     -2972.2632      279.40837      11376.959    
      1210   282.91257      111.79625     -3393.2084     -2972.3974      272.50717      11377.293    
      1220   285.66473      111.85367     -3395.1223     -2970.2176      215.85288      11377.633    
      1230   288.37347      111.92606     -3397.5353     -2968.6016      152.77592      11377.976    
      1240   289.68236      111.95134     -3398.3781     -2967.4976      118.49612      11378.323    
      1250   291.01576      111.94936     -3398.312      -2965.4481      96.87916       11378.672    
      1260   293.8463       111.99992     -3399.9975     -2962.9233      46.565505      11379.023    
      1270   297.63605      112.03877     -3401.2923     -2958.5812     -3.6866492      11379.375    
      1280   300.45019      112.06125     -3402.0418     -2955.1449     -38.031953      11379.727    
      1290   300.96016      112.06106     -3402.0353     -2954.3799     -48.291918      11380.078    
      1300   301.25321      112.05721     -3401.907      -2953.8157     -60.692508      11380.429    
      1310   305.0219       112.1271      -3404.2368     -2950.5398     -131.09644      11380.778    
      1320   311.61886      112.19677     -3406.5589     -2943.0495     -221.85837      11381.125    
      1330   316.33297      112.31791     -3410.5972     -2940.0758     -310.17737      11381.468    
      1340   315.12768      112.28887     -3409.6288     -2940.9003     -285.17717      11381.805    
      1350   308.72077      112.18491     -3406.1637     -2946.965      -182.18631      11382.137    
      1360   300.42218      112.07729     -3402.5765     -2955.7212     -56.712227      11382.466    
      1370   291.8713       111.91454     -3397.1513     -2963.0149      88.772339      11382.794    
      1380   285.10601      111.81722     -3393.9074     -2969.8338      183.78255      11383.123    
      1390   283.28128      111.7943      -3393.1433     -2971.7839      195.19728      11383.456    
      1400   289.06809      111.87424     -3395.808      -2965.8411      93.266369      11383.793    
      1410   298.70467      122.03939     -3401.313      -2957.0124     -21.562738      11384.132    
      1420   305.72948      122.18938     -3406.3128     -2951.5634     -158.14216      11384.47     
      1430   306.18787      122.18445     -3406.1482     -2950.7169     -167.99811      11384.806    
      1440   300.22444      122.07481     -3402.4936     -2955.9325     -72.407018      11385.139    
      1450   291.42606      121.9376      -3397.92       -2964.4458      67.349302      11385.471    
      1460   283.4741       121.77674     -3392.5581     -2970.9119      214.86128      11385.805    
      1470   277.92012      121.69495     -3389.8318     -2976.4467      313.52313      11386.142    
      1480   274.54324      121.5935      -3386.4499     -2978.0876      400.06121      11386.485    
      1490   273.21552      121.55281     -3385.0938     -2978.7064      442.33709      11386.837    
      1500   274.00251      121.53455     -3384.4849     -2976.9269      454.77268      11387.196    
      1510   275.76295      121.54166     -3384.7219     -2974.5454      446.10768      11387.564    
      1520   277.35885      121.56154     -3385.3847     -2972.8345      429.74159      11387.941    
      1530   279.26169      121.58283     -3386.0944     -2970.7139      406.7798       11388.326    
      1540   282.10765      121.63691     -3387.897      -2968.2833      359.13629      11388.72     
      1550   285.69676      121.7004      -3390.0134     -2965.0611      296.51218      11389.12     
      1560   289.73946      121.77987     -3392.6624     -2961.6969      218.32017      11389.525    
      1570   294.54567      121.84158     -3394.7193     -2956.6049      138.45448      11389.936    
      1580   299.56433      121.91498     -3397.166      -2951.5867      54.774959      11390.348    
      1590   302.75245      121.94724     -3398.2414     -2947.9201      7.1801522      11390.763    
      1600   302.28215      121.92894     -3397.6312     -2948.0094      14.065314      11391.177    
      1610   299.59659      111.87475     -3395.8251     -2950.1979     -8.3758787      11391.592    
      1620   298.32386      111.86806     -3395.6021     -2951.8679     -5.2211808      11392.006    
      1630   299.98137      111.89839     -3396.6132     -2950.4136     -44.143714      11392.421    
      1640   304.40865      111.97878     -3399.2925     -2946.5077     -125.51388      11392.835    
      1650   309.41891      112.08469     -3402.8229     -2942.5857     -217.63627      11393.246    
      1660   311.88162      112.09689     -3403.2296     -2939.3294     -244.11415      11393.654    
      1670   309.31451      112.06462     -3402.154      -2942.0721     -204.30931      11394.057    
      1680   302.65718      111.94863     -3398.2877     -2948.1081     -94.147993      11394.457    
      1690   296.13124      111.83526     -3394.5085     -2954.0357      14.328207      11394.855    
      1700   293.79144      111.79562     -3393.1872     -2956.1947      57.956492      11395.253    
      1710   295.79277      111.80857     -3393.619      -2953.6497      41.872663      11395.653    
      1720   298.78671      111.838       -3394.5999     -2950.1773      7.4355622      11396.053    
      1730   299.49762      111.86092     -3395.3639     -2949.8839     -7.5757263      11396.454    
      1740   297.39992      111.82534     -3394.178      -2951.8182      22.603557      11396.855    
      1750   294.5785       111.75023     -3391.6743     -2953.5112      75.27374       11397.257    
      1760   293.24545      111.71572     -3390.524      -2954.3437      99.397462      11397.659    
      1770   294.28486      111.70095     -3390.0318     -2952.3054      90.983958      11398.064    
      1780   297.52539      111.75039     -3391.6797     -2949.1332      33.530975      11398.471    
      1790   301.95758      111.82363     -3394.121      -2944.982      -49.504441      11398.879    
      1800   306.96421      111.8788      -3395.9601     -2939.3741     -133.24469      11399.285    
      1810   311.93894      111.99662     -3399.8873     -2935.9018     -237.7955       11399.69     
      1820   315.17715      112.02643     -3400.8809     -2932.0787     -288.93488      11400.09     
      1830   315.71408      112.04284     -3401.428      -2931.8272     -303.75025      11400.484    
      1840   314.41681      111.99328     -3399.7761     -2932.105      -267.23057      11400.873    
      1850   312.78975      111.95816     -3398.6053     -2933.3542     -221.61051      11401.257    
      1860   310.43665      111.93872     -3397.9574     -2936.2064     -170.97093      11401.637    
      1870   306.27401      111.86957     -3395.6523     -2940.0929     -88.968356      11402.014    
      1880   300.75999      111.79391     -3393.1303     -2945.7726     -0.71964536     11402.389    
      1890   295.76766      111.65218     -3388.4059     -2948.474       97.837964      11402.764    
      1900   293.15607      111.60138     -3386.7127     -2950.6652      131.52552      11403.141    
      1910   293.25676      111.56416     -3385.4719     -2949.2747      128.86277      11403.521    
      1920   295.75899      111.62205     -3387.4018     -2947.4827      65.218111      11403.903    
      1930   300.39712      111.72336     -3390.7788     -2943.9609     -31.599037      11404.287    
      1940   305.72674      111.82047     -3394.0158     -2939.2704     -128.31201      11404.67     
      1950   309.71309      111.91101     -3397.0338     -2936.3591     -206.11556      11405.051    
      1960   311.14266      111.9276      -3397.5867     -2934.7856     -227.39862      11405.428    
      1970   309.70983      111.86503     -3395.5011     -2934.8312     -189.87971      11405.801    
      1980   306.85858      111.84602     -3394.8675     -2938.4386     -155.8746       11406.171    
      1990   305.47848      111.81613     -3393.8711     -2939.495      -130.46436      11406.538    
      2000   307.23234      111.86603     -3395.5342     -2938.5494     -161.56682      11406.902    
      2010   310.44025      111.94422     -3398.1407     -2936.3843     -215.57325      11407.263    
      2020   312.04893      111.94065     -3398.0215     -2933.8724     -225.21498      11407.621    
      2030   310.68761      111.91919     -3397.3062     -2935.1819     -204.97104      11407.974    
      2040   307.39953      111.88159     -3396.0531     -2938.8196     -165.37747      11408.324    
      2050   304.31732      111.78439     -3392.8131     -2940.1641     -108.10862      11408.671    
      2060   303.17245      111.7511      -3391.7032     -2940.7571     -94.510368      11409.016    
      2070   304.17298      111.76935     -3392.3117     -2939.8775     -119.15621      11409.359    
      2080   305.84204      111.77512     -3392.5041     -2937.5873     -142.63522      11409.7      
      2090   306.83703      111.74601     -3391.5336     -2935.1368     -142.68558      11410.038    
      2100   307.48251      111.77815     -3392.6051     -2935.2481     -157.81922      11410.374    
      2110   308.77342      111.79746     -3393.2487     -2933.9716     -169.37368      11410.707    
      2120   310.79065      111.80137     -3393.3791     -2931.1016     -180.0232       11411.037    
      2130   312.47405      111.79578     -3393.1927     -2928.4112     -186.50451      11411.364    
      2140   312.8106       111.81926     -3393.9752     -2928.6932     -194.89057      11411.687    
      2150   311.61089      111.83295     -3394.4318     -2930.9342     -186.9585       11412.007    
      2160   309.01817      111.79589     -3393.1964     -2933.5553     -147.31144      11412.324    
      2170   305.15422      111.71032     -3390.3439     -2936.4502     -78.825793      11412.638    
      2180   301.18687      111.63887     -3387.9623     -2939.9697     -16.884237      11412.95     
      2190   299.30494      111.614       -3387.1333     -2941.9399      6.779834       11413.262    
      2200   300.88437      111.6585      -3388.6168     -2941.0741     -29.356981      11413.575    
      2210   303.79017      121.75261     -3391.7536     -2939.8887     -40.356066      11413.887    
      2220   305.35065      121.79507     -3393.1691     -2938.9832     -79.24247       11414.199    
      2230   304.92896      121.77012     -3392.3373     -2938.7786     -72.641381      11414.51     
      2240   302.3624       121.71825     -3390.6083     -2940.8672     -34.325797      11414.819    
      2250   297.87574      121.62772     -3387.5906     -2944.5231      36.715926      11415.129    
      2260   292.64748      121.54759     -3384.9196     -2949.6287      109.60273      11415.439    
      2270   288.78059      121.49217     -3383.0724     -2953.5331      159.79853      11415.751    
      2280   287.76446      121.48439     -3382.8128     -2954.785       166.43345      11416.066    
      2290   288.96133      121.52049     -3384.0162     -2954.2081      138.81391      11416.385    
      2300   289.88465      121.5359      -3384.5299     -2953.3485      124.87017      11416.706    
      2310   288.67272      121.52843     -3384.2808     -2954.902       141.33856      11417.03     
      2320   286.23756      121.45146     -3381.7153     -2955.9586      196.83578      11417.358    
      2330   285.12549      121.42605     -3380.8685     -2956.7659      221.42883      11417.688    
      2340   286.85773      121.44804     -3381.6014     -2954.9223      200.04841      11418.024    
      2350   291.03843      121.54191     -3384.7304     -2951.8328      123.8814       11418.363    
      2360   295.81797      121.62296     -3387.432      -2947.4252      39.853882      11418.704    
      2370   299.3836       121.70176     -3390.0586     -2944.7482     -38.384681      11419.046    
      2380   300.93523      121.73631     -3391.2103     -2943.592      -83.17268       11419.388    
      2390   300.12821      121.71237     -3390.4122     -2943.9943     -80.600945      11419.729    
      2400   296.44932      121.64043     -3388.0143     -2947.0684     -25.511594      11420.068    
      2410   289.70653      121.51314     -3383.7713     -2952.8548      85.279102      11420.407    
      2420   281.39261      121.36159     -3378.7195     -2960.1694      221.37354      11420.748    
      2430   274.69677      121.21189     -3373.7296     -2965.139       338.49975      11421.093    
      2440   272.94675      121.15536     -3371.8453     -2965.8577      366.70794      11421.444    
      2450   278.05739      121.25399     -3375.1331     -2961.5438      264.14678      11421.803    
      2460   289.25834      121.46264     -3382.0881     -2951.8382      57.495043      11422.166    
      2470   302.76974      121.741       -3391.3666     -2941.0195     -201.50457      11422.531    
      2480   313.8058       121.91167     -3397.0558     -2930.2934     -396.20307      11422.892    
      2490   318.94666      121.97958     -3399.3192     -2924.9102     -490.24676      11423.246    
      2500   317.23256      121.9154      -3397.18       -2925.3206     -459.43522      11423.591    
      2510   310.33385      121.82042     -3394.014      -2932.4159     -355.68952      11423.928    
      2520   301.52601      121.67921     -3389.3071     -2940.81       -206.92476      11424.257    
      2530   294.58912      121.54455     -3384.8184     -2946.6394     -72.104075      11424.583    
      2540   291.90317      121.48301     -3382.7669     -2948.583      -0.3012855      11424.908    
      2550   292.90598      121.49993     -3383.331      -2947.6556      7.7568376      11425.232    
      2560   295.3698       121.53539     -3384.5131     -2945.1729     -5.66608        11425.557    
      2570   296.73059      121.54693     -3384.8976     -2943.5333     -1.6419205      11425.882    
      2580   295.37038      121.50538     -3383.5127     -2944.1716      43.560072      11426.207    
      2590   291.63314      121.43265     -3381.0883     -2947.3061      115.62742      11426.534    
      2600   287.50222      121.34893     -3378.2977     -2950.6599      185.62573      11426.862    
      2610   285.72039      121.38266     -3379.4221     -2954.4347      181.38451      11427.194    
      2620   287.4918       121.39769     -3379.923      -2952.3007      147.67451      11427.53     
      2630   291.49779      121.44917     -3381.6391     -2948.0582      80.169443      11427.869    
      2640   294.89504      121.53297     -3384.4323     -2945.7982      8.1354575      11428.209    
      2650   295.80075      121.50852     -3383.6172     -2943.636       2.5562086      11428.55     
      2660   294.87845      121.46686     -3382.2286     -2943.6193      22.844079      11428.89     
      2670   294.43753      121.4694      -3382.3132     -2944.3597      22.965325      11429.232    
      2680   296.17898      121.45617     -3381.8722     -2941.3284      7.4258601      11429.574    
      2690   299.84826      121.51332     -3383.7772     -2937.7757     -57.325137      11429.916    
      2700   303.6235       121.58819     -3386.2731     -2934.6562     -135.19266      11430.257    
      2710   305.07752      121.62903     -3387.6344     -2933.8547     -182.94525      11430.596    
      2720   302.86747      121.63115     -3387.7051     -2937.2127     -185.59217      11430.932    
      2730   298.08163      121.59858     -3386.6192     -2943.2454     -150.79193      11431.264    
      2740   292.63618      121.51068     -3383.6893     -2948.4152     -87.101024      11431.594    
      2750   288.21047      121.44128     -3381.3761     -2952.6849     -40.753326      11431.922    
      2760   286.95778      121.43325     -3381.1084     -2954.2804     -46.092875      11432.249    
      2770   289.68781      121.48528     -3382.8428     -2951.9542     -108.75745      11432.576    
      2780   294.65834      121.57383     -3385.7942     -2947.5122     -203.56967      11432.9      
      2790   299.45053      121.63161     -3387.7205     -2942.3105     -279.44372      11433.221    
      2800   302.39072      121.67167     -3389.0556     -2939.2724     -323.17829      11433.536    
      2810   302.64755      121.6632      -3388.7733     -2938.608      -314.63706      11433.846    
      2820   300.29377      121.59168     -3386.3893     -2939.7251     -252.60168      11434.15     
      2830   297.0614       121.51222     -3383.7407     -2941.8843     -178.70841      11434.449    
      2840   295.57494      121.46835     -3382.2782     -2942.6329     -138.43871      11434.745    
      2850   297.41848      121.4807      -3382.6901     -2940.3026     -155.82386      11435.038    
      2860   301.50465      121.53365     -3384.455      -2935.9897     -214.90268      11435.329    
      2870   304.96783      121.62661     -3387.5535     -2933.937      -285.74871      11435.615    
      2880   304.72359      121.59344     -3386.4481     -2933.1948     -273.32267      11435.897    
      2890   299.57195      121.51493     -3383.831      -2938.2404     -196.44817      11436.173    
      2900   291.88952      121.31979     -3377.3263     -2943.1627     -47.69288       11436.446    
      2910   285.56278      121.22425     -3374.1415     -2949.3886      53.671491      11436.717    
      2920   282.83865      121.21738     -3373.9126     -2953.2115      87.460958      11436.99     
      2930   283.73331      121.21269     -3373.7564     -2951.7247      82.725573      11437.265    
      2940   287.3452       121.30823     -3376.9409     -2949.5367      9.3181017      11437.541    
      2950   292.31347      121.40843     -3380.281      -2945.4868     -82.695711      11437.818    
      2960   297.01846      121.51579     -3383.8598     -2942.0674     -176.5232       11438.093    
      2970   300.16244      121.56739     -3385.5797     -2939.1108     -235.04901      11438.365    
      2980   302.13723      121.63333     -3387.7778     -2938.3716     -286.87591      11438.632    
      2990   304.50079      121.6945      -3389.8168     -2936.8949     -336.67204      11438.894    
      3000   307.68646      121.72325     -3390.7749     -2933.1146     -378.65974      11439.15     
      3010   310.68697      121.76841     -3392.2802     -2930.1569     -425.17867      11439.399    
      3020   312.5979       121.78596     -3392.8655     -2927.8998     -450.46904      11439.639    
      3030   312.5978       121.79265     -3393.0882     -2928.1227     -451.94239      11439.871    
      3040   309.82808      121.74527     -3391.5089     -2930.6631     -405.14004      11440.095    
      3050   304.09085      121.64826     -3388.2752     -2935.9631     -309.70562      11440.312    
      3060   296.15279      121.52338     -3384.1127     -2943.6078     -182.5334       11440.522    
      3070   287.72754      121.37811     -3379.2705     -2951.2976     -44.934971      11440.729    
      3080   281.30381      121.24539     -3374.8465     -2956.4284      68.936496      11440.935    
      3090   278.46111      121.21289     -3373.7631     -2959.5733      110.04636      11441.143    
      3100   279.41673      121.1817      -3372.7234     -2957.1122      113.07356      11441.353    
      3110   283.2067       121.24105     -3374.7016     -2953.4531      55.239111      11441.565    
      3120   287.08593      121.31376     -3377.1252     -2950.1067     -9.1551949      11441.778    
      3130   288.8084       121.34361     -3378.1203     -2948.5397     -38.268972      11441.991    
      3140   288.8549       121.36285     -3378.7618     -2949.112      -47.018291      11442.204    
      3150   289.08587      121.36959     -3378.9864     -2948.9931     -49.246364      11442.415    
      3160   289.93886      121.38369     -3379.4563     -2948.1942     -57.649235      11442.626    
      3170   290.31055      121.38903     -3379.6343     -2947.8193     -59.782415      11442.836    
      3180   289.45387      121.3603      -3378.6765     -2948.1358     -43.263683      11443.046    
      3190   288.23522      121.31711     -3377.237      -2948.5089     -26.732565      11443.254    
      3200   288.8914       121.33538     -3377.8461     -2948.1421     -58.430963      11443.462    
      3210   292.7663       121.37619     -3379.2065     -2943.7388     -133.775        11443.669    
      3220   298.88931      121.46553     -3382.1842     -2937.609      -251.04599      11443.873    
      3230   304.45543      121.56057     -3385.3525     -2932.4981     -367.02388      11444.073    
      3240   307.39232      121.58834     -3386.2779     -2929.0551     -433.82598      11444.266    
      3250   308.46109      121.64156     -3388.0519     -2929.2394     -490.04141      11444.45     
      3260   309.42489      121.67317     -3389.1058     -2928.8597     -530.28035      11444.626    
      3270   310.54917      121.69596     -3389.8654     -2927.947      -560.677        11444.791    
      3280   310.9351       121.69361     -3389.787      -2927.2946     -565.42204      11444.946    
      3290   309.29009      121.67427     -3389.1424     -2929.0969     -537.78431      11445.091    
      3300   304.88527      121.58922     -3386.3074     -2932.8137     -455.04221      11445.225    
      3310   298.32497      121.4812      -3382.7067     -2938.9709     -341.30261      11445.351    
      3320   291.71929      121.39211     -3379.7371     -2945.8268     -234.5098       11445.47     
      3330   287.20165      121.34874     -3378.2913     -2951.1006     -165.2311       11445.584    
      3340   284.97057      121.28351     -3376.1171     -2952.2449     -110.84591      11445.696    
      3350   283.93233      121.2753      -3375.8434     -2953.5156     -93.297188      11445.805    
      3360   283.53125      121.23513     -3374.5042     -2952.773      -74.884369      11445.913    
      3370   284.47177      121.23883     -3374.6277     -2951.4975     -86.75451       11446.019    
      3380   287.03613      121.25993     -3375.3309     -2948.3864     -119.45951      11446.124    
      3390   290.56214      121.32197     -3377.3991     -2945.2099     -174.30961      11446.227    
      3400   293.08303      121.358       -3378.6        -2942.6612     -208.0406       11446.326    
      3410   291.99423      121.31309     -3377.1031     -2942.7839     -178.09949      11446.422    
      3420   287.05411      121.25781     -3375.2604     -2948.2892     -112.40244      11446.514    
      3430   282.36423      121.15578     -3371.8594     -2951.864      -34.213557      11446.604    
      3440   282.70838      121.16421     -3372.1403     -2951.633      -43.896927      11446.694    
      3450   288.68202      121.211       -3373.7        -2944.3073     -118.5935       11446.783    
      3460   296.80341      121.36361     -3378.7871     -2937.3146     -255.17738      11446.869    
      3470   303.48519      121.50209     -3383.4028     -2931.9916     -375.86527      11446.951    
      3480   307.5288       121.57727     -3385.909      -2928.4832     -446.57667      11447.025    
      3490   308.92112      121.65192     -3388.3974     -2928.9006     -485.30563      11447.092    
      3500   306.89541      121.58578     -3386.1927     -2929.7091     -431.3871       11447.149    
      3510   301.65933      121.47354     -3382.4513     -2933.7559     -327.09077      11447.198    
      3520   296.54037      121.39113     -3379.7043     -2938.623      -231.63647      11447.241    
      3530   293.87707      121.34921     -3378.3071     -2941.1873     -171.50549      11447.28     
      3540   292.77764      121.3276      -3377.5867     -2942.1022     -136.48768      11447.315    
      3550   292.48144      121.32451     -3377.4836     -2942.4396     -121.52429      11447.348    
      3560   293.25083      121.33274     -3377.7578     -2941.5695     -127.28789      11447.378    
      3570   295.86993      121.34661     -3378.2202     -2938.1361     -158.74357      11447.406    
      3580   300.72         121.41269     -3380.4231     -2933.1249     -233.90788      11447.431    
      3590   306.1641       121.5329      -3384.4299     -2929.034      -336.6083       11447.451    
      3600   309.21752      121.59422     -3386.4741     -2926.5365     -396.91368      11447.465    
      3610   308.18534      121.55002     -3385.0007     -2926.5983     -380.80815      11447.472    
      3620   303.84848      121.50927     -3383.6425     -2931.6909     -335.53556      11447.472    
      3630   298.26989      121.41071     -3380.3568     -2936.703      -253.79398      11447.465    
      3640   292.99286      121.34129     -3378.0429     -2942.2382     -184.50407      11447.454    
      3650   289.80447      121.28206     -3376.0688     -2945.0066     -137.92208      11447.439    
      3660   290.28774      121.31274     -3377.0914     -2945.3104     -158.14486      11447.421    
      3670   293.73196      121.39293     -3379.7642     -2942.8602     -220.69223      11447.4      
      3680   296.94453      121.41362     -3380.4541     -2938.7716     -254.8349       11447.375    
      3690   297.75754      121.44225     -3381.4082     -2938.5164     -264.55128      11447.345    
      3700   295.93028      121.43503     -3381.1676     -2940.9937     -231.28646      11447.311    
      3710   292.33599      121.35645     -3378.5483     -2943.7207     -152.19579      11447.272    
      3720   288.75583      121.2703      -3375.6765     -2946.1741     -70.25086       11447.23     
      3730   286.88475      121.21104     -3373.7015     -2946.9822     -16.786883      11447.187    
      3740   287.0148       121.17995     -3372.6651     -2945.7523      4.4827798      11447.143    
      3750   288.01428      121.20394     -3373.4646     -2945.0652     -8.6437728      11447.1      
      3760   288.97528      121.25482     -3375.1607     -2945.3319     -37.669102      11447.056    
      3770   289.50283      121.23872     -3374.6241     -2944.0106     -40.826707      11447.012    
      3780   289.03587      121.24405     -3374.8015     -2944.8826     -47.762954      11446.968    
      3790   287.62792      121.23235     -3374.4118     -2946.587      -44.199225      11446.922    
      3800   286.63621      121.22021     -3374.0072     -2947.6575     -48.69762       11446.876    
      3810   288.76645      121.217       -3373.9001     -2944.3819     -85.275615      11446.828    
      3820   295.09751      121.38031     -3379.3437     -2940.4085     -220.50229      11446.779    
      3830   302.89766      121.49922     -3383.3074     -2932.7701     -346.96635      11446.726    
      3840   307.74012      121.56866     -3385.6218     -2927.8817     -422.58182      11446.666    
      3850   307.80932      121.58731     -3386.2436     -2928.4006     -430.16092      11446.599    
      3860   305.01165      121.56986     -3385.6622     -2931.9804     -392.37692      11446.523    
      3870   302.5368       121.50709     -3383.5696     -2933.569      -335.20311      11446.44     
      3880   301.53383      121.46305     -3382.1018     -2933.5931     -295.70794      11446.35     
      3890   300.39306      121.4284      -3380.9467     -2934.1348     -260.39718      11446.255    
      3900   297.50075      121.41342     -3380.4474     -2937.9376     -220.58184      11446.154    
      3910   293.31961      121.32785     -3377.5951     -2941.3044     -144.62044      11446.05     
      3920   289.50854      121.23722     -3374.5739     -2943.9519     -71.75985       11445.943    
      3930   287.751        121.17181     -3372.3937     -2944.3859     -25.658808      11445.835    
      3940   288.53537      121.16007     -3372.0023     -2942.8278     -20.121846      11445.725    
      3950   290.95152      121.18954     -3372.9847     -2940.2164     -43.496981      11445.616    
      3960   293.5653       121.25413     -3375.1378     -2938.4816     -82.078994      11445.506    
      3970   295.26061      121.28632     -3376.2107     -2937.0329     -102.1763       11445.394    
      3980   295.85229      121.27881     -3375.9604     -2935.9026     -101.33068      11445.28     
      3990   296.47131      121.31912     -3377.304      -2936.3254     -123.33191      11445.164    
      4000   298.8835       121.36421     -3378.8068     -2934.2403     -165.18267      11445.046    
      4010   303.60682      121.45496     -3381.832      -2930.2398     -243.37306      11444.925    
      4020   309.02536      121.52279     -3384.093      -2924.4412     -314.21601      11444.799    
      4030   312.81544      121.57305     -3385.7684     -2920.4792     -356.69929      11444.667    
      4040   313.63472      121.58934     -3386.3114     -2919.8035     -352.44992      11444.528    
      4050   311.66026      121.53152     -3384.3842     -2920.8131     -290.66289      11444.383    
      4060   308.28922      121.4643      -3382.1434     -2923.5865     -211.97324      11444.232    
      4070   304.96957      121.40209     -3380.0698     -2926.4506     -139.03269      11444.077    
      4080   302.22263      121.36605     -3378.8684     -2929.3352     -87.334625      11443.919    
      4090   299.68755      121.32202     -3377.4005     -2931.638      -42.575886      11443.76     
      4100   296.7536       121.27876     -3375.9585     -2934.5601     -2.5766874      11443.6      
      4110   293.15034      121.19976     -3373.3253     -2937.2864      51.541542      11443.44     
      4120   289.65798      121.11487     -3370.4958     -2939.6515      103.10181      11443.28     
      4130   288.50601      121.08404     -3369.4681     -2940.3373      114.12491      11443.123    
      4140   291.09131      121.14411     -3371.4705     -2938.4942      61.932089      11442.968    
      4150   295.86684      121.30687     -3376.8957     -2936.8162     -41.162063      11442.814    
      4160   298.70813      121.34791     -3378.2637     -2933.958      -73.184985      11442.659    
      4170   296.86362      121.29645     -3376.5483     -2934.9862     -25.942597      11442.503    
      4180   292.4543       121.22241     -3374.0802     -2939.0766      52.432003      11442.346    
      4190   290.13289      121.17817     -3372.6057     -2941.0551      98.918678      11442.191    
      4200   292.67885      121.20193     -3373.3978     -2938.0602      71.718932      11442.037    
      4210   298.95016      121.3284      -3377.6132     -2932.9475     -34.761971      11441.885    
      4220   305.35378      121.4416      -3381.3866     -2927.196      -143.56921      11441.732    
      4230   309.064        121.47058     -3382.3527     -2922.6434     -199.32322      11441.576    
      4240   310.39194      121.48416     -3382.8053     -2921.1208     -224.7206       11441.416    
      4250   311.09583      121.51411     -3383.8038     -2921.0724     -243.07346      11441.252    
      4260   311.80737      121.52059     -3384.0197     -2920.2299     -242.53009      11441.084    
      4270   311.66359      121.51561     -3383.8538     -2920.2778     -223.61852      11440.911    
      4280   310.11956      121.46169     -3382.0563     -2920.777      -170.62126      11440.733    
      4290   307.3339       121.40112     -3380.0375     -2922.9016     -102.92565      11440.553    
      4300   303.72719      121.31005     -3377.0015     -2925.2303     -19.231422      11440.371    
      4310   300.97893      121.23447     -3374.4823     -2926.7989      46.117671      11440.188    
      4320   301.39582      121.24765     -3374.9218     -2926.6183      47.352259      11440.006    
      4330   304.77504      121.31824     -3377.2747     -2923.9449      0.036198862    11439.825    
      4340   308.09088      121.36802     -3378.934      -2920.6722     -37.824816      11439.644    
      4350   307.8791       121.40933     -3380.3111     -2922.3643     -38.307898      11439.462    
      4360   302.33282      121.25965     -3375.3215     -2925.6244      84.608538      11439.28     
      4370   292.79365      121.08553     -3369.5176     -2934.0093      252.45231      11439.099    
      4380   284.11447      120.95077     -3365.0257     -2942.427       393.69169      11438.923    
      4390   282.10825      120.89675     -3363.2251     -2943.6105      436.79092      11438.755    
      4400   289.06145      121.0237      -3367.4566     -2937.4996      321.57418      11438.595    
      4410   301.65416      121.272       -3375.7332     -2927.0455      99.359408      11438.441    
      4420   314.36685      121.53472     -3384.4907     -2916.8939     -135.06503      11438.289    
      4430   322.49838      121.67943     -3389.3143     -2909.6224     -281.71673      11438.134    
      4440   323.67406      121.6904      -3389.68       -2908.2394     -308.62031      11437.974    
      4450   318.77381      121.60733     -3386.911      -2912.7591     -237.81188      11437.809    
      4460   311.34116      121.43926     -3381.3085     -2918.2122     -104.85508      11437.639    
      4470   305.25494      121.37857     -3379.2856     -2925.242      -19.537414      11437.467    
      4480   302.59435      121.37589     -3379.1965     -2929.1103      16.529603      11437.295    
      4490   302.52975      121.38855     -3379.6184     -2929.6283      25.806006      11437.122    
      4500   302.3393       121.39106     -3379.7018     -2929.995       41.17106       11436.951    
      4510   300.64778      121.36246     -3378.7487     -2931.558       83.915446      11436.78     
      4520   298.4092       121.29639     -3376.5464     -2932.6853      149.38077      11436.611    
      4530   296.74746      121.21313     -3373.771      -2932.3816      217.09198      11436.445    
      4540   295.90333      121.2038      -3373.4601     -2933.3263      244.81201      11436.283    
      4550   296.11007      121.18969     -3372.9896     -2932.5483      255.86594      11436.125    
      4560   297.84207      121.18332     -3372.7774     -2929.7599      243.15255      11435.973    
      4570   299.93548      121.21507     -3373.8358     -2927.7045      207.36846      11435.824    
      4580   300.35624      121.20876     -3373.6255     -2926.8683      198.33618      11435.68     
      4590   298.57345      121.12721     -3370.9071     -2926.8017      235.72021      11435.54     
      4600   296.9655       121.10799     -3370.2663     -2928.5526      247.47037      11435.405    
      4610   298.74998      121.20117     -3373.3725     -2929.0045      190.78025      11435.274    
      4620   303.88403      121.29162     -3376.3874     -2924.3829      110.18312      11435.146    
      4630   309.51315      121.37533     -3379.1778     -2918.8004      30.761325      11435.021    
      4640   312.8547       121.44939     -3381.6462     -2916.2986     -21.567106      11434.896    
      4650   312.70773      121.4486      -3381.6201     -2916.4911     -13.431761      11434.771    
      4660   310.90008      121.42572     -3380.8574     -2918.4171      16.417614      11434.646    
      4670   311.02912      121.38266     -3379.4221     -2916.7898      37.61345       11434.522    
      4680   313.32877      121.4144      -3380.48       -2914.4272      12.073766      11434.398    
      4690   315.03882      121.46708     -3382.2361     -2913.6397     -14.503229      11434.274    
      4700   314.14492      121.44899     -3381.633      -2914.3662      11.972103      11434.15     
      4710   310.54519      121.35847     -3378.6157     -2916.7032      93.784081      11434.027    
      4720   305.10326      121.30187     -3376.729      -2922.911       180.66247      11433.905    
      4730   299.21503      121.17026     -3372.3421     -2927.2824      296.25871      11433.787    
      4740   294.89084      121.09845     -3369.9482     -2931.3204      367.08513      11433.674    
      4750   293.7848       121.06101     -3368.7003     -2931.7177      387.04791      11433.568    
      4760   295.96681      121.08671     -3369.5569     -2929.3287      345.79334      11433.47     
      4770   300.1901       121.1452      -3371.5068     -2924.9967      268.98663      11433.379    
      4780   305.36335      121.25633     -3375.211      -2921.0061      163.09878      11433.292    
      4790   310.47398      121.40987     -3380.329      -2918.5225      44.896417      11433.209    
      4800   313.38072      121.51189     -3383.7297     -2917.5996     -29.975032      11433.127    
      4810   312.13077      121.53088     -3384.3626     -2920.0918     -35.137481      11433.045    
      4820   307.85078      121.42419     -3380.8063     -2922.9016      33.974129      11432.962    
      4830   303.95868      121.34825     -3378.2749     -2926.1594      87.258762      11432.88     
      4840   302.95515      121.32449     -3377.483      -2926.8601      93.089406      11432.799    
      4850   304.91645      121.38195     -3379.3983     -2925.8582      41.334358      11432.72     
      4860   307.67349      121.40638     -3380.2128     -2922.5718     -3.3463577      11432.642    
      4870   308.91711      121.42328     -3380.7761     -2921.2854     -26.5797        11432.564    
      4880   307.11139      121.39299     -3379.7663     -2922.9614      1.5355564      11432.485    
      4890   302.17322      121.30615     -3376.8717     -2927.412       81.614362      11432.407    
      4900   296.38629      121.22776     -3374.2587     -2933.4066      165.89005      11432.33     
      4910   292.99783      121.16116     -3372.0387     -2936.2266      221.89074      11432.256    
      4920   294.43402      121.14993     -3371.6644     -2933.7161      211.17283      11432.186    
      4930   300.64805      121.22086     -3374.0287     -2926.8375      126.26351      11432.121    
      4940   308.72764      121.41238     -3380.4126     -2921.2036     -18.126556      11432.057    
      4950   314.79285      121.49272     -3383.0907     -2914.8602     -97.561715      11431.994    
      4960   316.75079      121.52247     -3384.0822     -2912.9394     -114.70187      11431.929    
      4970   314.47448      121.48364     -3382.7881     -2915.0311     -63.889901      11431.861    
      4980   309.39099      121.41778     -3380.5927     -2920.397       20.922041      11431.793    
      4990   304.45415      121.34682     -3378.2272     -2925.3747      99.228588      11431.725    
      5000   302.91871      121.33342     -3377.7808     -2927.2122      117.68814      11431.659    
      5010   305.5546       121.37559     -3379.1864     -2924.6971      72.001015      11431.595    
      5020   310.30114      121.45984     -3381.9946     -2920.4452     -9.9984407      11431.533    
      5030   313.91189      121.5079      -3383.5966     -2916.6764     -65.623467      11431.47     
      5040   314.62268      121.53505     -3384.5016     -2916.5242     -79.933417      11431.406    
      5050   312.25372      121.48696     -3382.8988     -2918.4451     -26.524464      11431.341    
      5060   307.01635      121.33184     -3377.7279     -2921.0644      102.01184      11431.276    
      5070   300.50704      121.17759     -3372.5863     -2925.6048      245.05492      11431.213    
      5080   295.27684      121.08606     -3369.5352     -2930.3333      351.79597      11431.154    
      5090   293.01186      121.07164     -3369.0546     -2933.2216      396.37898      11431.102    
      5100   293.89919      121.08634     -3369.5445     -2932.3918      392.15964      11431.057    
      5110   294.79997      131.0984      -3369.9467     -2931.4541      437.68957      11431.021    
      5120   292.68878      131.04386     -3368.1287     -2932.7763      470.61922      11430.993    
      5130   288.94837      130.9931      -3366.4367     -2936.6479      510.71964      11430.974    
      5140   286.98949      130.98493     -3366.1645     -2939.2893      515.2186       11430.965    
      5150   288.52474      131.0132      -3367.1066     -2937.9479      474.7244       11430.966    
      5160   292.46142      131.09617     -3369.8722     -2934.858       394.98026      11430.976    
      5170   296.88044      131.17667     -3372.5557     -2930.9685      319.09469      11430.994    
      5180   300.26648      131.19756     -3373.2519     -2926.6283      284.4202       11431.018    
      5190   301.84748      131.21085     -3373.6949     -2924.7197      276.2663       11431.047    
      5200   301.68572      131.17032     -3372.3441     -2923.6095      308.38399      11431.083    
      5210   300.47212      131.16455     -3372.1516     -2925.2221      335.42486      11431.124    
      5220   299.19862      131.17333     -3372.4443     -2927.409       353.57357      11431.171    
      5230   297.98976      131.17165     -3372.3885     -2929.1513      372.06687      11431.226    
      5240   295.72459      131.09802     -3369.9341     -2930.0662      425.36633      11431.288    
      5250   291.92201      131.04176     -3368.0586     -2933.8467      486.05397      11431.358    
      5260   287.57861      130.97496     -3365.8318     -2938.0805      556.45417      11431.437    
      5270   284.34431      130.86667     -3362.2222     -2939.2816      632.38585      11431.527    
      5280   283.58113      130.913       -3363.7667     -2941.9613      623.14636      11431.63     
      5290   285.98174      130.94591     -3364.8637     -2939.4875      585.51074      11431.744    
      5300   290.63862      131.03052     -3367.6841     -2935.3812      502.65555      11431.869    
      5310   295.51567      131.15492     -3371.8308     -2932.2736      400.52815      11432.005    
      5320   298.31739      131.19144     -3373.048      -2929.3235      352.60349      11432.148    
      5330   297.76759      131.15852     -3371.9507     -2929.044       365.35397      11432.298    
      5340   294.62504      131.07117     -3369.0389     -2930.8065      427.641        11432.455    
      5350   290.61883      131.02225     -3367.4082     -2935.1347      486.64964      11432.621    
      5360   287.07596      130.94692     -3364.8972     -2937.8934      550.12315      11432.796    
      5370   284.80379      130.90808     -3363.6025     -2939.9785      581.2499       11432.982    
      5380   285.0637       130.8672      -3362.2401     -2938.2294      581.89921      11433.179    
      5390   289.39415      130.95288     -3365.0959     -2934.644       492.53222      11433.387    
      5400   297.3341       131.08512     -3369.504      -2927.2421      353.19055      11433.605    
      5410   305.5974       131.20391     -3373.4638     -2918.9108      220.9262       11433.83     
      5420   310.79332      131.28656     -3376.2187     -2913.9372      137.9746       11434.059    
      5430   311.50769      131.30139     -3376.7131     -2913.369       127.28574      11434.291    
      5440   308.98368      131.253       -3375.0998     -2915.51        172.78602      11434.526    
      5450   306.14441      131.23789     -3374.5962     -2919.2296      208.97304      11434.764    
      5460   304.95543      131.2433      -3374.7768     -2921.1787      223.14268      11435.007    
      5470   304.42213      131.20634     -3373.5447     -2920.7398      249.30798      11435.254    
      5480   302.4501       131.14123     -3371.3744     -2921.5028      301.39679      11435.506    
      5490   298.78668      131.06286     -3368.7621     -2924.3396      374.70334      11435.764    
      5500   295.34418      130.98101     -3366.0335     -2926.7314      446.59325      11436.03     
      5510   293.97086      130.91188     -3363.7293     -2926.4699      491.82068      11436.304    
      5520   294.42121      130.92161     -3364.0536     -2926.1244      483.29076      11436.588    
      5530   295.09064      130.90394     -3363.4647     -2924.5397      473.41004      11436.881    
      5540   295.22825      130.95081     -3365.0271     -2925.8975      435.90679      11437.184    
      5550   295.25259      130.95596     -3365.1988     -2926.0329      411.77967      11437.495    
      5560   295.40815      130.95963     -3365.321      -2925.9238      389.35449      11437.814    
      5570   294.93252      130.94705     -3364.9018     -2926.212       384.67349      11438.141    
      5580   293.47941      130.97059     -3365.6863     -2929.1579      383.47958      11438.476    
      5590   291.843        130.95113     -3365.0376     -2930.9432      410.46276      11438.818    
      5600   290.79451      130.94696     -3364.8987     -2932.3639      434.73355      11439.169    
      5610   291.53281      120.96082     -3365.3606     -2931.7276      379.39002      11439.527    
      5620   295.10145      120.9861      -3366.2032     -2927.2622      346.90501      11439.894    
      5630   300.94595      121.04439     -3368.1464     -2920.5121      274.44609      11440.267    
      5640   308.41712      121.19507     -3373.169      -2914.4219      146.46601      11440.646    
      5650   315.82202      121.30513     -3376.8378     -2907.0765      32.344948      11441.028    
      5660   320.43257      121.39242     -3379.7473     -2903.1281     -48.289211      11441.41     
      5670   320.88286      121.40061     -3380.0202     -2902.7312     -59.628389      11441.793    
      5680   318.27648      121.32598     -3377.5328     -2904.1207     -10.307504      11442.174    
      5690   315.11779      121.27311     -3375.7704     -2907.0565      35.394651      11442.556    
      5700   313.18387      121.20687     -3373.5622     -2907.7249      71.997189      11442.939    
      5710   313.00337      121.19202     -3373.0672     -2907.4984      70.674323      11443.323    
      5720   313.65617      121.19611     -3373.2035     -2906.6638      55.505494      11443.709    
      5730   313.04745      121.18145     -3372.7149     -2907.0806      62.919842      11444.096    
      5740   310.04634      121.15914     -3371.9714     -2910.8009      97.656821      11444.485    
      5750   306.70002      121.09121     -3369.7072     -2913.5141      156.41175      11444.876    
      5760   305.94928      121.06219     -3368.7398     -2913.6634      180.56318      11445.27     
      5770   308.40592      121.1422      -3371.4067     -2912.6763      135.73949      11445.668    
      5780   312.02474      121.20362     -3373.4539     -2909.3408      84.953147      11446.069    
      5790   314.45048      121.20016     -3373.3387     -2905.6175      63.577027      11446.473    
      5800   314.89963      121.24385     -3374.795      -2906.4056      36.032799      11446.877    
      5810   313.1223       131.1893      -3372.9767     -2907.231       128.92127      11447.283    
      5820   309.17636      131.10035     -3370.0117     -2910.1353      195.09157      11447.692    
      5830   304.94555      130.97055     -3365.6848     -2912.1014      283.12098      11448.106    
      5840   301.18973      130.89734     -3363.2446     -2915.2477      346.76664      11448.525    
      5850   297.55849      130.85814     -3361.9381     -2919.3424      394.16786      11448.951    
      5860   294.04211      130.75818     -3358.6061     -2921.2407      458.97728      11449.385    
      5870   291.62228      130.74255     -3358.0851     -2924.3191      476.46147      11449.828    
      5880   291.51921      130.72066     -3357.3554     -2923.7427      470.24377      11450.28     
      5890   294            130.78049     -3359.3497     -2922.047       407.28919      11450.742    
      5900   297.5701       130.83381     -3361.127      -2918.5141      338.54363      11451.212    
      5910   300.31969      130.8632      -3362.1067     -2915.4039      292.24429      11451.689    
      5920   301.12094      130.83093     -3361.0311     -2913.1365      294.47652      11452.172    
      5930   300.10643      130.79869     -3359.9564     -2913.5708      322.08577      11452.661    
      5940   297.90229      130.71171     -3357.0569     -2913.9499      387.86063      11453.157    
      5950   295.62188      130.68639     -3356.213      -2916.4979      433.47783      11453.661    
      5960   294.71075      130.70334     -3356.7779     -2918.4179      449.46088      11454.173    
      5970   296.09618      130.74127     -3358.0422     -2917.6216      431.529        11454.694    
      5980   299.69884      130.8222      -3360.7401     -2914.9608      369.83856      11455.224    
      5990   304.19698      130.91654     -3363.8848     -2911.4149      287.18706      11455.761    
      6000   307.75796      130.98073     -3366.0243     -2908.2576      218.55239      11456.304    
      6010   309.35404      131.03017     -3367.6722     -2907.5315      171.50528      11456.852    
      6020   308.47551      131.02346     -3367.4487     -2908.6147      167.87436      11457.404    
      6030   305.46285      130.91999     -3363.9998     -2909.6469      219.98905      11457.959    
      6040   302.32932      130.84964     -3361.6545     -2911.9626      260.10571      11458.519    
      6050   301.78581      130.83368     -3361.1226     -2912.2391      256.46196      11459.084    
      6060   304.59309      130.92635     -3364.2116     -2911.1524      182.47609      11459.655    
      6070   308.56298      131.01394     -3367.1314     -2908.1674      102.06826      11460.229    
      6080   310.50646      131.03831     -3367.9437     -2906.0888      67.144332      11460.806    
      6090   308.5042       130.98961     -3366.3202     -2907.4436      99.937231      11461.385    
      6100   303.45103      130.93279     -3364.4262     -2913.0658      167.35169      11461.966    
      6110   299.70562      120.86374     -3362.1248     -2916.3354      167.7927       11462.551    
      6120   300.7474       120.88117     -3362.7056     -2915.3666      156.94032      11463.139    
      6130   303.06704      120.92943     -3364.3145     -2913.5252      123.87356      11463.73     
      6140   303.2258       120.91111     -3363.7036     -2912.6782      132.30479      11464.324    
      6150   302.0333       120.84477     -3361.4924     -2912.2407      166.71799      11464.922    
      6160   302.58448      120.84139     -3361.3798     -2911.3083      156.90121      11465.523    
      6170   306.215        120.90904     -3363.6348     -2908.1632      84.936148      11466.128    
      6180   312.11556      121.00955     -3366.9851     -2902.7369     -26.099224      11466.734    
      6190   317.97079      121.125       -3370.8333     -2897.8758     -145.95352      11467.341    
      6200   321.69822      121.16649     -3372.2164     -2893.7147     -217.52493      11467.945    
      6210   322.77629      121.18786     -3372.9286     -2892.8234     -252.22367      11468.546    
      6220   321.78747      121.21141     -3373.7138     -2895.0793     -261.84038      11469.143    
      6230   319.74419      121.18447     -3372.8157     -2897.2205     -237.42726      11469.735    
      6240   318.35975      121.18918     -3372.9727     -2899.4367     -228.87345      11470.323    
      6250   318.81952      121.18777     -3372.9255     -2898.7056     -231.80143      11470.907    
      6260   319.80571      121.21163     -3373.721      -2898.0343     -249.12668      11471.487    
      6270   319.63287      121.15934     -3371.9781     -2896.5484     -229.3998       11472.062    
      6280   318.54164      121.12605     -3370.8682     -2897.0616     -208.76932      11472.634    
      6290   317.5098       121.05447     -3368.4822     -2896.2104     -173.2247       11473.202    
      6300   316.43816      121.04929     -3368.3097     -2897.6319     -160.40901      11473.767    
      6310   314.18082      121.05839     -3368.613      -2901.2929     -139.99751      11474.329    
      6320   310.8795       120.94217     -3364.7391     -2902.3295     -61.00384       11474.89     
      6330   307.6134       120.87809     -3362.603      -2905.0514     -1.8378446      11475.449    
      6340   305.07593      120.85082     -3361.694      -2907.9166      35.412266      11476.009    
      6350   304.69826      120.79928     -3359.976      -2906.7604      60.146054      11476.57     
      6360   307.58595      120.84194     -3361.3981     -2903.8873      15.326789      11477.133    
      6370   313.18668      120.92546     -3364.1821     -2898.3406     -74.598597      11477.696    
      6380   319.87915      121.01674     -3367.2247     -2891.4287     -178.52115      11478.258    
      6390   325.71231      121.13592     -3371.1972     -2886.7248     -282.00928      11478.817    
      6400   328.89879      121.20348     -3373.4493     -2884.2373     -335.45264      11479.372    
      6410   327.08402      131.17384     -3372.4613     -2885.9486     -230.85789      11479.921    
      6420   319.3166       130.9614      -3365.3801     -2890.4209     -56.51431       11480.466    
      6430   308.43024      130.72036     -3357.3452     -2898.5786      158.94968      11481.011    
      6440   299.63397      130.54806     -3351.6021     -2905.9193      320.40778      11481.559    
      6450   297.68901      130.55635     -3351.8784     -2909.0886      334.80173      11482.114    
      6460   303.42037      130.63095     -3354.3649     -2903.0501      236.68231      11482.675    
      6470   313.32671      130.80239     -3360.0796     -2894.0299      52.456149      11483.241    
      6480   322.50238      130.98339     -3366.1129     -2886.415      -128.1336       11483.809    
      6490   327.1991       131.07318     -3369.106      -2882.4222     -221.64824      11484.375    
      6500   325.73138      131.0428      -3368.0932     -2883.5925     -194.61472      11484.938    
      6510   318.35359      130.89755     -3363.2516     -2889.7247     -49.885272      11485.497    
      6520   307.11237      130.63817     -3354.6056     -2897.7992      185.32296      11486.056    
      6530   295.98355      130.43292     -3347.7641     -2907.511       399.95117      11486.619    
      6540   288.74016      130.28384     -3342.7948     -2913.3157      549.01743      11487.19     
      6550   287.06463      130.24673     -3341.5576     -2914.5707      589.33472      11487.772    
      6560   290.77351      130.32569     -3344.1895     -2911.686       518.78014      11488.366    
      6570   298.26726      130.47405     -3349.1351     -2905.4852      374.43469      11488.97     
      6580   306.33673      130.63758     -3354.5859     -2898.9332      212.22541      11489.582    
      6590   312.10241      130.76022     -3358.674      -2894.4453      85.669063      11490.199    
      6600   314.95511      130.78277     -3359.4256     -2890.9537      27.381039      11490.818    
      6610   316.09529      130.82327     -3360.7757     -2890.608      -15.345081      11491.438    
      6620   316.46092      130.76983     -3358.9942     -2888.2826     -7.1555521      11492.058    
      6630   315.65186      130.73705     -3357.9017     -2888.3935      11.713002      11492.679    
      6640   313.06932      130.68569     -3356.1896     -2890.5227      59.679906      11493.3      
      6650   309.09943      130.56803     -3352.2676     -2892.5056      149.16352      11493.923    
      6660   304.74618      130.51418     -3350.4726     -2897.1857      219.39838      11494.55     
      6670   300.92687      130.39191     -3346.3969     -2898.791       308.19687      11495.182    
      6680   298.71094      130.3127      -3343.7568     -2899.4469      358.68066      11495.82     
      6690   299.33215      130.33198     -3344.3992     -2899.1653      334.6612       11496.465    
      6700   302.97022      130.39381     -3346.4603     -2895.8151      254.11722      11497.117    
      6710   308.15688      130.48178     -3349.3928     -2891.0328      139.29968      11497.775    
      6720   312.93591      130.59347     -3353.1157     -2887.6472      14.355945      11498.436    
      6730   316.1142       130.61878     -3353.9594     -2883.7635     -61.237429      11499.098    
      6740   317.38477      130.65042     -3355.0139     -2882.9281     -113.21029      11499.759    
      6750   316.97118      130.60196     -3353.3987     -2881.9281     -106.31258      11500.419    
      6760   315.00706      130.55907     -3351.9689     -2883.4198     -72.591747      11501.078    
      6770   311.42926      130.51653     -3350.551      -2887.3236     -11.655693      11501.736    
      6780   306.51545      130.38518     -3346.1726     -2890.2541      103.08132      11502.394    
      6790   300.96047      130.285       -3342.8333     -2895.1774      213.00466      11503.055    
      6800   295.95119      130.17585     -3339.195      -2898.99        316.76747      11503.72     
      6810   292.85524      130.10791     -3336.9303     -2901.3303      378.11514      11504.393    
      6820   292.66724      130.14359     -3338.1197     -2902.7994      360.65442      11505.073    
      6830   295.97183      130.25472     -3341.8238     -2901.5882      269.99654      11505.76     
      6840   302.42228      130.38736     -3346.2455     -2896.4153      133.93261      11506.453    
      6850   309.57168      130.51782     -3350.594      -2890.1296     -9.5073766      11507.15     
      6860   313.99123      130.61113     -3353.7042     -2886.6661     -110.53517      11507.847    
      6870   314.89884      130.62821     -3354.2736     -2885.8855     -141.89023      11508.542    
      6880   313.8552       130.61539     -3353.8464     -2887.0105     -130.90914      11509.235    
      6890   311.66208      130.56853     -3352.2842     -2888.7105     -85.191289      11509.927    
      6900   308.23981      130.52162     -3350.7207     -2892.2373     -23.468511      11510.617    
      6910   304.58294      130.45059     -3348.3529     -2895.3089      48.547411      11511.308    
      6920   302.97132      130.41534     -3347.1778     -2896.531       82.502036      11512        
      6930   305.09543      130.44872     -3348.2908     -2894.4844      50.389377      11512.694    
      6940   309.85405      130.54116     -3351.3719     -2890.4874     -31.82553       11513.39     
      6950   313.8746       130.60339     -3353.4462     -2886.5815     -96.57058       11514.085    
      6960   314.1427       130.6007      -3353.3565     -2886.0931     -101.3962       11514.78     
      6970   310.58719      130.50809     -3350.2698     -2888.2949     -38.734094      11515.473    
      6980   306.50626      130.41325     -3347.1082     -2891.2034      26.574524      11516.166    
      6990   305.31611      130.38648     -3346.2161     -2892.0816      34.158997      11516.86     
      7000   307.96876      130.41064     -3347.0214     -2888.9412     -19.286056      11517.555    
      7010   312.83662      130.51725     -3350.5751     -2885.2543     -127.41421      11518.25     
      7020   317.34352      130.61295     -3353.7651     -2881.7406     -229.10369      11518.944    
      7030   320.53976      130.69905     -3356.6351     -2879.8565     -311.30157      11519.634    
      7040   322.60585      130.74346     -3358.1153     -2878.2635     -360.63028      11520.318    
      7050   323.75037      130.74638     -3358.2128     -2876.6586     -377.84238      11520.996    
      7060   323.4816       130.75745     -3358.5817     -2877.4273     -378.01641      11521.667    
      7070   321.27008      130.723       -3357.4335     -2879.5686     -339.31102      11522.331    
      7080   317.84164      130.65715     -3355.2382     -2882.4728     -276.08358      11522.99     
      7090   314.40802      130.59136     -3353.0452     -2885.3871     -215.23316      11523.644    
      7100   311.77653      130.54138     -3351.3793     -2887.6354     -172.86347      11524.294    
      7110   310.13735      130.52649     -3350.8829     -2889.577      -158.07456      11524.941    
      7120   309.17189      130.49709     -3349.9029     -2890.0332     -148.057        11525.586    
      7130   308.6355       130.43269     -3347.7564     -2888.6845     -132.58397      11526.228    
      7140   308.80283      130.43326     -3347.7754     -2888.4546     -149.82987      11526.868    
      7150   310.04224      130.44294     -3348.098      -2886.9337     -178.2613       11527.506    
      7160   312.32038      130.49646     -3349.8821     -2885.3292     -227.33873      11528.141    
      7170   314.65822      130.51564     -3350.5214     -2882.4911     -256.51112      11528.772    
      7180   315.39601      130.54328     -3351.4425     -2882.3149     -269.61547      11529.399    
      7190   314.11658      130.53179     -3351.0595     -2883.8349     -247.29536      11530.021    
      7200   311.52887      130.47535     -3349.1783     -2885.8028     -196.86214      11530.639    
      7210   308.49354      130.41817     -3347.2724     -2888.4117     -145.73458      11531.254    
      7220   305.95252      130.33914     -3344.6381     -2889.5569     -95.994963      11531.866    
      7230   305.06727      130.31983     -3343.9942     -2890.2298     -90.279063      11532.477    
      7240   306.73032      130.36184     -3345.3948     -2889.1567     -136.55225      11533.087    
      7250   310.54117      130.42585     -3347.5283     -2885.6219     -214.99316      11533.694    
      7260   315.35341      130.52505     -3350.8351     -2881.7708     -318.01145      11534.298    
      7270   320.29898      130.62701     -3354.2336     -2877.8132     -422.46365      11534.897    
      7280   324.52929      130.69549     -3356.5162     -2873.8035     -502.8147       11535.487    
      7290   326.57363      130.72152     -3357.3839     -2871.6304     -538.38691      11536.069    
      7300   324.63988      130.71763     -3357.2544     -2874.3772     -518.6191       11536.641    
      7310   318.27327      130.63173     -3354.391      -2880.9836     -422.19902      11537.203    
      7320   309.3507       130.42532     -3347.5107     -2887.375      -256.75989      11537.757    
      7330   301.38627      130.26952     -3342.3173     -2894.028      -123.52193      11538.307    
      7340   297.01755      130.17972     -3339.3239     -2897.5328     -54.860647      11538.855    
      7350   296.90779      130.17235     -3339.0784     -2897.4506     -64.43566       11539.403    
      7360   300.32623      130.22542     -3340.8473     -2894.1348     -134.42625      11539.949    
      7370   304.89974      130.28907     -3342.969      -2889.4538     -220.36754      11540.493    
      7380   307.7346       130.33477     -3344.4924     -2886.7605     -284.90662      11541.034    
      7390   308.54913      130.31367     -3343.7889     -2884.8454     -305.11922      11541.57     
      7400   309.81688      130.34479     -3344.8263     -2883.9972     -347.36554      11542.1      
      7410   313.93195      130.43914     -3347.9713     -2881.0213     -435.56844      11542.624    
      7420   320.09968      130.54978     -3351.6593     -2875.5353     -543.76318      11543.139    
      7430   325.13939      130.68599     -3356.1998     -2872.5796     -645.51893      11543.645    
      7440   326.40758      130.70952     -3356.9841     -2871.4776     -664.36648      11544.139    
      7450   323.51283      130.62854     -3354.2846     -2873.0837     -601.60768      11544.62     
      7460   318.08008      130.51035     -3350.3449     -2877.2249     -500.51229      11545.09     
      7470   312.57372      130.36324     -3345.4414     -2880.5117     -392.09792      11545.551    
      7480   309.49765      130.30285     -3343.4285     -2883.0742     -344.58331      11546.005    
      7490   309.71093      130.30244     -3343.4148     -2882.7433     -356.4662       11546.452    
      7500   312.3431       130.37661     -3345.887      -2881.3003     -421.93898      11546.892    
      7510   315.37122      130.4506      -3348.3534     -2879.2626     -487.9642       11547.325    
      7520   316.39715      130.47001     -3349.0002     -2878.3834     -507.33278      11547.748    
      7530   314.14797      130.42985     -3347.6617     -2880.3904     -467.47476      11548.163    
      7540   310.42551      130.35334     -3345.1113     -2883.3769     -395.45518      11548.568    
      7550   308.3363       130.31256     -3343.7519     -2885.125      -349.99385      11548.966    
[...]
      8180   301.60238      130.23733     -3341.2443     -2892.6337     -399.3981       11555.595    
      8190   304.1643       130.30895     -3343.6315     -2891.2102     -460.13405      11555.384    
      8200   306.34886      130.38126     -3346.0419     -2890.3712     -522.88051      11555.163    
      8210   308.55572      130.45011     -3348.3369     -2889.3837     -585.19724      11554.932    
      8220   311.04         130.53232     -3351.0772     -2888.4288     -652.742        11554.69     
      8230   313.42556      130.53772     -3351.2574     -2885.0606     -686.41928      11554.434    
      8240   315.3862       130.57443     -3352.4811     -2883.3681     -722.10554      11554.165    
      8250   316.68245      130.64172     -3354.7239     -2883.6827     -756.40567      11553.882    
      8260   316.51901      130.62548     -3354.1827     -2883.3846     -738.05534      11553.584    
      8270   313.67551      130.54536     -3351.5119     -2884.9433     -666.52079      11553.271    
      8280   308.79795      130.44156     -3348.0521     -2888.7385     -566.2782       11552.946    
      8290   304.70762      130.36098     -3345.3661     -2892.1367     -484.15923      11552.609    
      8300   304.07984      130.33965     -3344.6551     -2892.3594     -457.60183      11552.262    
      8310   306.55462      130.37461     -3345.8204     -2889.8437     -482.02836      11551.906    
      8320   309.55988      130.41594     -3347.198      -2886.7512     -513.71154      11551.54     
      8330   310.63527      130.47905     -3349.3018     -2887.2554     -535.85668      11551.164    
      8340   309.20274      130.46196     -3348.732      -2888.8163     -503.98591      11550.777    
      8350   306.04667      130.39962     -3346.6539     -2891.4327     -442.20583      11550.381    
      8360   302.93517      130.35779     -3345.2595     -2894.6664     -393.40391      11549.975    
      8370   301.32214      130.27802     -3342.6007     -2894.4069     -350.91898      11549.561    
      8380   301.87116      130.26779     -3342.2597     -2893.2492     -362.93138      11549.14     
      8390   304.90841      130.28207     -3342.7356     -2889.2074     -413.05486      11548.712    
      8400   309.75665      130.39859     -3346.6197     -2885.8801     -520.83049      11548.275    
      8410   314.55304      130.47094     -3349.0312     -2881.1574     -609.64401      11547.828    
      8420   317.30924      130.46826     -3348.942      -2876.9686     -648.07791      11547.369    
      8430   317.61433      130.50484     -3350.1613     -2877.7341     -672.95494      11546.896    
      8440   316.22827      130.53638     -3351.2128     -2880.8472     -672.39316      11546.41     
      8450   313.90671      130.56154     -3352.0513     -2885.1389     -650.74662      11545.911    
      8460   310.43305      130.48938     -3349.6462     -2887.9005     -572.9126       11545.399    
      8470   305.5768       130.42587     -3347.5288     -2893.0065     -479.92537      11544.875    
      8480   300.29698      130.34233     -3344.7444     -2898.0754     -375.1421       11544.341    
      8490   296.13569      130.30413     -3343.471      -2902.9916     -303.06894      11543.8      
      8500   293.85169      130.26276     -3342.0919     -2905.0098     -254.62319      11543.252    
      8510   293.2936       130.24301     -3341.4337     -2905.1817     -239.93013      11542.699    
      8520   295.0015       130.26713     -3342.2375     -2903.4452     -269.6884       11542.141    
      8530   299.41863      130.33978     -3344.6594     -2899.2969     -343.64712      11541.577    
      8540   305.36719      130.46202     -3348.7339     -2894.5233     -444.73901      11541.005    
      8550   310.41081      130.5116      -3350.3865     -2888.674      -502.43632      11540.425    
      8560   312.78321      130.52519     -3350.8397     -2885.5984     -514.66048      11539.835    
      8570   312.09429      130.5385      -3351.2833     -2887.0666     -492.4081       11539.234    
      8580   309.03996      130.4349      -3347.83       -2888.1564     -404.45405      11538.624    
      8590   305.87209      130.34093     -3344.6975     -2889.736      -324.79173      11538.005    
      8600   304.65716      130.32832     -3344.2774     -2891.123      -304.74359      11537.379    
      8610   305.88072      130.34322     -3344.7739     -2889.7995     -329.70252      11536.746    
      8620   309.23248      130.47448     -3349.1492     -2889.1894     -428.73321      11536.106    
      8630   314.35436      130.57705     -3352.5683     -2884.99       -538.22034      11535.458    
      8640   319.72674      130.72809     -3357.6031     -2882.0338     -665.23383      11534.798    
      8650   322.44957      130.85155     -3361.7183     -2882.099      -748.83864      11534.125    
      8660   320.81555      130.83899     -3361.2996     -2884.1108     -729.19895      11533.437    
      8670   316.05561      130.75381     -3358.4603     -2888.3516     -641.53385      11532.735    
      8680   311.38505      130.67827     -3355.9423     -2892.7807     -548.63019      11532.019    
      8690   309.29813      130.62531     -3354.1771     -2894.1196     -480.28791      11531.292    
      8700   309.15042      130.65349     -3355.1165     -2895.2787     -456.21895      11530.555    
      8710   308.06688      130.65946     -3355.3153     -2897.0892     -417.80242      11529.808    
      8720   304.89493      130.56953     -3352.3177     -2898.8096     -331.75441      11529.053    
      8730   301.69611      130.48302     -3349.4341     -2900.684      -257.84356      11528.291    
      8740   301.45571      130.46574     -3348.858      -2900.4655     -249.61817      11527.523    
      8750   305.50527      130.51205     -3350.4018     -2895.9859     -315.13471      11526.749    
      8760   312.48583      130.63908     -3354.6362     -2889.8372     -441.74301      11525.969    
      8770   317.83548      130.73864     -3357.9546     -2885.1984     -540.43391      11525.179    
      8780   317.19908      130.74549     -3358.183      -2886.3734     -543.43465      11524.379    
      8790   311.23347      130.68026     -3356.0086     -2893.0724     -463.00566      11523.567    
      8800   304.66242      130.56774     -3352.258      -2899.0958     -351.26795      11522.745    
      8810   301.23044      130.48067     -3349.3557     -2901.2983     -269.77945      11521.916    
      8820   301.0755       130.47292     -3349.0973     -2901.2703     -243.89859      11521.081    
      8830   302.8737       130.42808     -3347.6027     -2897.101      -218.65993      11520.24     
      8840   305.33316      130.45522     -3348.5073     -2894.3473     -226.39859      11519.395    
      8850   307.9522       130.54868     -3351.6225     -2893.567      -261.46737      11518.544    
      8860   310.49961      130.58953     -3352.9843     -2891.1397     -279.9624       11517.688    
      8870   312.82952      130.6577      -3355.2568     -2889.9466     -311.1501       11516.826    
      8880   314.27992      130.72071     -3357.3571     -2889.8895     -334.99639      11515.956    
      8890   313.9115       130.7247      -3357.49       -2890.5704     -320.33401      11515.08     
      8900   311.46785      130.68833     -3356.2777     -2892.9929     -268.39549      11514.197    
      8910   307.53187      130.60712     -3353.5708     -2896.1405     -180.80071      11513.308    
      8920   303.06819      130.5274      -3350.9132     -2900.1223     -85.210816      11512.414    
      8930   299.46337      130.46822     -3348.9406     -2903.5116     -3.4827989      11511.518    
      8940   297.85517      130.46747     -3348.9158     -2905.8788      36.529734      11510.622    
      8950   298.49697      130.45904     -3348.6348     -2904.6432      54.982308      11509.725    
      8960   300.69049      130.47674     -3349.2248     -2901.9705      42.891206      11508.829    
      8970   303.53794      130.58603     -3352.8677     -2901.3781     -17.534479      11507.932    
      8980   306.6276       130.64489     -3354.8297     -2898.7444     -66.752195      11507.035    
      8990   309.67618      130.67142     -3355.714      -2895.0941     -106.46132      11506.135    
      9000   312.24518      130.70834     -3356.9448     -2892.5038     -145.28056      11505.233    
      9010   313.79038      130.72142     -3357.3806     -2890.6412     -161.73219      11504.327    
      9020   313.74967      130.7274      -3357.5799     -2890.901      -153.23591      11503.418    
      9030   311.08976      130.7061      -3356.8699     -2894.1475     -100.67455      11502.505    
      9040   305.18326      130.54269     -3351.4231     -2897.4861      42.560239      11501.589    
      9050   298.0494       130.47375     -3349.1251     -2905.7992      163.49767      11500.673    
      9060   293.3322       130.39253     -3346.4177     -2910.1083      264.40374      11499.76     
      9070   292.87809      130.39382     -3346.4607     -2910.8267      287.37575      11498.85     
      9080   296.26038      130.4617      -3348.7233     -2908.0585      240.70397      11497.946    
      9090   301.90083      130.58126     -3352.7088     -2903.6542      145.18506      11497.045    
      9100   307.76452      130.74488     -3358.1626     -2900.3862      26.676945      11496.146    
      9110   311.88217      130.81944     -3360.648      -2896.7469     -43.293378      11495.247    
      9120   313.79206      130.85497     -3361.8323     -2895.0903     -76.828725      11494.347    
      9130   314.41026      130.87723     -3362.5745     -2894.913      -92.407884      11493.444    
      9140   315.35059      130.894       -3363.1335     -2894.0734     -105.1999       11492.539    
      9150   316.96166      130.90409     -3363.4696     -2892.0132     -117.54816      11491.631    
      9160   318.04215      130.94728     -3364.9094     -2891.8458     -133.07756      11490.721    
      9170   316.47739      130.86009     -3362.0032     -2891.267      -72.543421      11489.807    
      9180   311.53989      130.82159     -3360.7197     -2897.3278      0.47505083     11488.89     
      9190   305.52519      130.73841     -3357.9469     -2903.5013      98.179916      11487.974    
      9200   302.57743      130.69122     -3356.3739     -2906.3129      154.10291      11487.058    
      9210   303.81975      130.70177     -3356.7255     -2904.8167      153.15838      11486.144    
      9220   306.49682      130.72431     -3357.4769     -2901.5861      138.11562      11485.233    
      9230   308.29115      130.6942      -3356.4734     -2897.9137      154.41983      11484.324    
      9240   308.89603      130.67649     -3355.883      -2896.4235      182.82653      11483.416    
      9250   308.51254      130.71841     -3357.2802     -2898.3912      199.86035      11482.512    
      9260   307.78779      130.69443     -3356.481      -2898.6699      242.37224      11481.61     
      9270   307.50973      130.73032     -3357.6773     -2900.2799      252.39346      11480.713    
      9280   308.22464      130.74606     -3358.202      -2899.7413      251.08054      11479.819    
      9290   310.65198      130.80701     -3360.2336     -2898.1623      206.02738      11478.93     
      9300   314.62786      130.88633     -3362.8778     -2894.8927      132.07034      11478.044    
      9310   318.11012      130.95615     -3365.205      -2892.0403      63.314705      11477.159    
      9320   318.54478      131.01005     -3367.0017     -2893.1905      30.630657      11476.275    
      9330   314.72102      130.92969     -3364.3231     -2896.1995      92.670596      11475.391    
      9340   307.90584      130.76741     -3358.9136     -2900.927       218.39724      11474.509    
      9350   301.24401      130.65153     -3355.0509     -2906.9733      328.45844      11473.629    
      9360   297.36938      130.57011     -3352.3371     -2910.0227      399.56359      11472.755    
      9370   297.25117      130.59712     -3353.2373     -2911.0987      393.1239       11471.888    
      9380   300.24287      130.6569      -3355.23       -2908.6415      343.66126      11471.028    
      9390   303.78976      130.72753     -3357.5845     -2905.7202      285.14663      11470.173    
      9400   305.0886       130.7347      -3357.8234     -2904.0272      272.34077      11469.323    
      9410   303.84321      130.712       -3357.0666     -2905.1229      296.57785      11468.478    
      9420   301.94528      130.6766      -3355.8868     -2906.7661      334.05671      11467.638    
      9430   301.83368      130.73505     -3357.835      -2908.8803      320.55508      11466.804    
      9440   304.57209      130.75822     -3358.6074     -2905.5795      294.7717       11465.975    
      9450   309.04095      130.85456     -3361.8188     -2902.1438      225.12309      11465.151    
      9460   313.52624      130.94336     -3364.7787     -2898.4321      159.35648      11464.331    
      9470   316.69199      130.99869     -3366.6231     -2895.5678      119.98576      11463.513    
      9480   318.01606      131.0182      -3367.2732     -2894.2484      114.18829      11462.697    
      9490   317.55177      131.0069      -3366.8968     -2894.5626      140.66045      11461.882    
      9500   315.74131      130.97724     -3365.9079     -2896.2667      192.61028      11461.07     
      9510   312.70132      130.92753     -3364.251      -2899.1315      267.55139      11460.26     
      9520   308.52575      130.86751     -3362.2504     -2903.3418      356.08288      11459.455    
      9530   304.15926      130.79974     -3359.9914     -2907.5776      444.6459       11458.656    
      9540   301.20618      130.77127     -3359.0424     -2911.0211      495.59053      11457.865    
      9550   301.37327      130.75225     -3358.4084     -2910.1385      505.35187      11457.083    
      9560   304.74665      130.81135     -3360.3784     -2907.0908      450.31639      11456.31     
      9570   309.2608       130.94023     -3364.6743     -2904.6723      359.27796      11455.545    
      9580   311.49398      130.96942     -3365.6472     -2902.3235      332.52924      11454.786    
      9590   309.41668      130.87523     -3362.5076     -2902.2738      397.62696      11454.033    
      9600   304.18721      130.77089     -3359.0295     -2906.5741      496.59059      11453.286    
      9610   299.07181      130.69635     -3356.5451     -2911.6985      581.11999      11452.549    
      9620   296.47789      130.659       -3355.2999     -2914.3115      622.68062      11451.823    
      9630   296.89363      130.70382     -3356.7939     -2915.1871      598.33651      11451.107    
      9640   299.28634      130.70821     -3356.9404     -2911.7746      567.4363       11450.402    
      9650   302.01243      130.78611     -3359.537      -2910.3164      505.59334      11449.708    
      9660   303.76535      130.8017      -3360.0567     -2908.2288      481.01017      11449.023    
      9670   304.00862      130.81544     -3360.5146     -2908.3248      477.13333      11448.346    
      9680   303.40744      130.78124     -3359.3745     -2908.079       505.2742       11447.678    
      9690   302.75375      130.76969     -3358.9898     -2908.6665      527.6993       11447.019    
      9700   302.31639      130.78603     -3359.5343     -2909.8616      537.62129      11446.37     
      9710   302.56233      130.80378     -3360.1259     -2910.0874      540.39973      11445.73     
      9720   304.42238      130.80953     -3360.3175     -2907.5123      532.79194      11445.1      
      9730   307.81585      130.87678     -3362.5594     -2904.7066      486.19733      11444.48     
      9740   311.16502      130.92347     -3364.1155     -2901.2811      445.03748      11443.868    
      9750   312.84207      130.94553     -3364.8511     -2899.5222      426.48537      11443.265    
      9760   312.46821      130.908       -3363.6001     -2898.8273      449.45099      11442.669    
      9770   311.11094      130.87891     -3362.6302     -2899.8762      482.37777      11442.081    
      9780   309.8805       130.91546     -3363.8485     -2902.9248      496.62751      11441.502    
      9790   308.51659      130.87051     -3362.3502     -2903.4552      550.2435       11440.932    
      9800   306.10786      130.83672     -3361.2239     -2905.9117      615.32394      11440.372    
      9810   302.23867      130.78635     -3359.5452     -2909.988       701.78223      11439.824    
      9820   297.65065      130.68653     -3356.2175     -2913.4847      812.18727      11439.288    
      9830   293.38567      130.61664     -3353.888      -2917.499       900.53925      11438.767    
      9840   291.45884      130.57236     -3352.4122     -2918.8892      945.99453      11438.263    
      9850   293.85404      130.6239      -3354.1301     -2917.0444      903.23425      11437.777    
      9860   300.78561      130.74393     -3358.1309     -2910.7351      783.56815      11437.308    
      9870   310.34135      130.93889     -3364.6296     -2903.0204      606.39178      11436.853    
      9880   319.25205      131.11772     -3370.5906     -2895.7273      441.86642      11436.409    
      9890   324.697        131.20161     -3373.3871     -2890.425       350.7113       11435.974    
      9900   325.30319      131.21486     -3373.8285     -2889.9647      337.9182       11435.545    
      9910   321.29868      131.11063     -3370.3544     -2892.4469      417.68279      11435.122    
      9920   315.08144      130.97121     -3365.7068     -2897.0471      532.616        11434.707    
      9930   310.33285      130.88415     -3362.8052     -2901.2086      616.43633      11434.301    
      9940   308.50815      130.89363     -3363.1211     -2904.2386      637.58901      11433.907    
      9950   308.33687      130.89974     -3363.3248     -2904.6971      645.1759       11433.525    
      9960   307.51138      130.89707     -3363.2357     -2905.8358      659.42788      11433.155    
      9970   305.89542      130.87498     -3362.4992     -2907.503       682.0526       11432.797    
      9980   306.30623      130.91215     -3363.7383     -2908.131       657.60717      11432.452    
      9990   310.69395      130.95971     -3365.3238     -2903.1901      589.87968      11432.119    
     10000   317.31477      131.06675     -3368.8918     -2896.9101      479.80383      11431.797    
Loop time of 2.058 on 1 procs for 10000 steps with 500 atoms

Performance: 419.825 ns/day, 0.057 hours/ns, 4859.088 timesteps/s, 2.430 Matom-step/s
97.1% CPU use with 1 MPI tasks x 1 OpenMP threads

MPI task timing breakdown:
Section |  min time  |  avg time  |  max time  |%varavg| %total
---------------------------------------------------------------
Pair    | 1.7345     | 1.7345     | 1.7345     |   0.0 | 84.28
Bond    | 0.00045366 | 0.00045366 | 0.00045366 |   0.0 |  0.02
Neigh   | 0.021162   | 0.021162   | 0.021162   |   0.0 |  1.03
Comm    | 0.05541    | 0.05541    | 0.05541    |   0.0 |  2.69
Output  | 0.006609   | 0.006609   | 0.006609   |   0.0 |  0.32
Modify  | 0.16673    | 0.16673    | 0.16673    |   0.0 |  8.10
Other   |            | 0.0731     |            |       |  3.55

Nlocal:            500 ave         500 max         500 min
Histogram: 1 0 0 0 0 0 0 0 0 0
Nghost:           1632 ave        1632 max        1632 min
Histogram: 1 0 0 0 0 0 0 0 0 0
Neighs:          14891 ave       14891 max       14891 min
Histogram: 1 0 0 0 0 0 0 0 0 0

Total # of neighbors = 14891
Ave neighs/atom = 29.782
Ave special neighs/atom = 0
Neighbor list builds = 28
Dangerous builds = 0

#write_data      ${rep}/lj-out.data
Total wall time: 0:00:02
