print           "This is replica: ${rep}"
This is replica: 3

read_data       ${rep}/lj.data
read_data       3/lj.data
Reading data file ...
  orthogonal box = (1.2179818 1.2179818 1.2179818) to (23.782018 23.782018 23.782018)
  1 by 1 by 1 MPI processor grid
  reading atoms ...
  500 atoms
  reading velocities ...
  500 velocities
Finding 1-2 1-3 1-4 neighbors ...
  special bond factors lj:    0        0        0       
  special bond factors coul:  0        0        0       
     0 = max # of 1-2 neighbors
     0 = max # of 1-3 neighbors
     0 = max # of 1-4 neighbors
     1 = max # of special neighbors
  special bonds CPU = 0.000 seconds
  read_data CPU = 0.013 seconds

#dump            dump all xyz 1000 ${rep}/dump.xyz

fix             fxnpt all npt temp ${T0} ${T0} 1000.0 iso ${press} ${press} 10000.0
fix             fxnpt all npt temp 300 ${T0} 1000.0 iso ${press} ${press} 10000.0
fix             fxnpt all npt temp 300 300 1000.0 iso ${press} ${press} 10000.0
fix             fxnpt all npt temp 300 300 1000.0 iso 0 ${press} 10000.0
fix             fxnpt all npt temp 300 300 1000.0 iso 0 0 10000.0
fix             fxgREM all grem ${lambda} -.03 -30000 fxnpt
fix             fxgREM all grem 930 -.03 -30000 fxnpt

thermo          10
thermo_style    custom step temp f_fxgREM pe etotal press vol
thermo_modify   press fxgREM_press
timestep        1.0

temper/grem     10000 100 ${lambda} fxgREM fxnpt 10294 98392 #${walker}
temper/grem     10000 100 930 fxgREM fxnpt 10294 98392 

CITE-CITE-CITE-CITE-CITE-CITE-CITE-CITE-CITE-CITE-CITE-CITE-CITE

Your simulation uses code contributions which should be cited:

- Type Label Framework: https://doi.org/10.1021/acs.jpcb.3c08419

@Article{Gissinger24,
 author = {Jacob R. Gissinger, Ilia Nikiforov, Yaser Afshar, Brendon Waters, Moon-ki Choi, Daniel S. Karls, Alexander Stukowski, Wonpil Im, Hendrik Heinz, Axel Kohlmeyer, and Ellad B. Tadmor},
 title = {Type Label Framework for Bonded Force Fields in LAMMPS},
 journal = {J. Phys. Chem. B},
 year =    2024,
 volume =  128,
 number =  13,
 pages =   {3282--3297}
}

CITE-CITE-CITE-CITE-CITE-CITE-CITE-CITE-CITE-CITE-CITE-CITE-CITE

Generated 0 of 0 mixed pair_coeff terms from geometric mixing rule
Neighbor list info ...
  update: every = 1 steps, delay = 0 steps, check = yes
  max neighbors/atom: 2000, page size: 100000
  master list distance cutoff = 7
  ghost atom cutoff = 7
  binsize = 3.5, bins = 7 7 7
  1 neighbor lists, perpetual/occasional/extra = 1 0 0
  (1) pair lj/cut, perpetual
      attributes: half, newton on
      pair build: half/bin/newton
      stencil: half/bin/3d
      bin: standard
Per MPI rank memory allocation (min/avg/max) = 6.091 | 6.091 | 6.091 Mbytes
   Step          Temp         f_fxgREM        PotEng         TotEng         Press          Volume    
         0   290.839        130.69094     -3356.3647     -2923.7637      13.376266      11488.157    
        10   298.49016      130.86737     -3362.2456     -2918.2641     -139.01604      11488.157    
        20   305.83037      130.96693     -3365.5642     -2910.6647     -254.45233      11488.154    
        30   310.23182      131.06065     -3368.6884     -2907.2421     -332.6078       11488.147    
        40   310.27284      131.0497      -3368.3232     -2906.8159     -322.86456      11488.133    
        50   306.53667      130.92563     -3364.1878     -2908.2377     -229.32538      11488.113    
        60   301.05574      130.86235     -3362.0784     -2914.2808     -139.231        11488.089    
        70   295.62185      130.74887     -3358.2958     -2918.5807     -30.491146      11488.063    
        80   291.00384      130.62365     -3354.1217     -2921.2755      71.01666       11488.035    
        90   287.64084      130.55052     -3351.684      -2923.84        136.2394       11488.01     
       100   285.69506      130.52063     -3350.6878     -2925.7381      167.78098      11487.986    
       110   285.01443      130.47978     -3349.3259     -2925.3886      187.54597      11487.967    
       120   285.56017      130.50213     -3350.0709     -2925.3218      166.71405      11487.95     
       130   287.32267      130.55196     -3351.732      -2924.3613      117.78235      11487.937    
       140   290.25953      130.63244     -3354.4147     -2922.6757      40.294086      11487.926    
       150   294.42016      130.70913     -3356.9709     -2919.0432     -49.672923      11487.916    
       160   299.06611      130.7992      -3359.9733     -2915.1352     -148.10802      11487.906    
       170   302.27189      130.85741     -3361.9138     -2912.3073     -219.91002      11487.892    
       180   303.1378       130.86602     -3362.2007     -2911.3062     -249.86552      11487.875    
       190   302.80624      130.87507     -3362.5024     -2912.101      -267.68392      11487.853    
       200   303.33827      130.87333     -3362.4442     -2911.2515     -285.78681      11487.825    
       210   305.50225      130.89943     -3363.3143     -2908.9029     -322.8026       11487.793    
       220   307.8506       130.92123     -3364.0411     -2906.1367     -351.6858       11487.754    
       230   308.22098      130.93218     -3364.406      -2905.9507     -348.92738      11487.708    
       240   305.74558      130.91929     -3363.9763     -2909.2029     -303.53645      11487.655    
       250   301.78407      130.84598     -3361.5326     -2912.6516     -216.20919      11487.597    
       260   298.46781      130.79714     -3359.9048     -2915.9565     -141.54301      11487.535    
       270   296.6334       130.7376      -3357.9199     -2916.7002     -78.222648      11487.47     
       280   295.89923      130.72322     -3357.4405     -2917.3129     -46.196268      11487.404    
       290   295.70202      130.70344     -3356.7814     -2916.9471     -22.779876      11487.336    
       300   296.0809       130.69482     -3356.4942     -2916.0963     -14.979689      11487.269    
       310   297.44441      130.74479     -3358.1598     -2915.7338     -42.715213      11487.2      
       320   299.60717      130.81428     -3360.476      -2914.8331     -85.551621      11487.132    
       330   301.41377      130.84528     -3361.5093     -2913.1791     -109.25906      11487.061    
       340   301.95586      130.8714      -3362.3801     -2913.2436     -116.5575       11486.989    
       350   301.04297      130.87719     -3362.5729     -2914.7943     -99.400013      11486.914    
       360   298.75155      130.86395     -3362.1318     -2917.7615     -61.50885       11486.838    
       370   295.31903      130.80084     -3360.0282     -2920.7635      2.6773056      11486.761    
       380   292.01129      130.74417     -3358.139      -2923.7943      56.644325      11486.683    
       390   291.02245      130.76411     -3358.8037     -2925.9298      52.10097       11486.607    
       400   293.47678      130.83929     -3361.3095     -2924.7851     -10.658362      11486.532    
       410   298.04044      130.90419     -3363.4729     -2920.1603     -92.578181      11486.456    
       420   302.65734      130.9386      -3364.6199     -2914.44       -161.38264      11486.379    
       430   305.5855       130.94802     -3364.9339     -2910.3987     -199.73358      11486.299    
       440   306.15167      130.96265     -3365.4215     -2910.0441     -210.28691      11486.214    
       450   304.70371      130.95        -3365          -2911.7763     -185.3492       11486.126    
       460   302.72257      130.89533     -3363.1778     -2912.9009     -135.56253      11486.035    
       470   301.56474      130.87256     -3362.4186     -2913.8639     -103.48059      11485.94     
       480   301.09438      130.88294     -3362.7646     -2914.9096     -90.732903      11485.844    
       490   300.36756      130.88438     -3362.8126     -2916.0386     -76.040163      11485.746    
       500   299.4191       130.85386     -3361.7953     -2916.432      -50.565105      11485.647    
       510   299.01286      130.85364     -3361.788      -2917.0291     -42.952581      11485.547    
       520   299.33976      130.84794     -3361.5979     -2916.3527     -40.157473      11485.446    
       530   299.80085      130.82121     -3360.7072     -2914.7761     -29.858964      11485.344    
       540   299.83305      130.81372     -3360.4572     -2914.4783     -22.114092      11485.242    
       550   299.40338      130.80907     -3360.3023     -2914.9625     -9.6379411      11485.139    
       560   298.265        130.81035     -3360.3451     -2916.6985      6.2888389      11485.037    
       570   296.79476      130.74596     -3358.1986     -2916.7388      46.554747      11484.934    
       580   296.869        130.75104     -3358.3681     -2916.798       42.273847      11484.833    
       590   299.99345      130.76812     -3358.9372     -2912.7197      1.7814686      11484.732    
       600   305.29628      130.90656     -3363.5518     -2909.4468     -108.84195      11484.631    
       610   310.53203      131.03197     -3367.7323     -2905.8395     -215.06534      11484.529    
       620   313.26681      131.11666     -3370.5554     -2904.5948     -282.33534      11484.422    
       630   312.85549      131.12029     -3370.6763     -2905.3275     -288.27732      11484.31     
       640   311.07063      131.06564     -3368.8547     -2906.1607     -255.89358      11484.192    
       650   309.45964      131.02232     -3367.4108     -2907.113      -224.40902      11484.07     
       660   307.97718      131.01313     -3367.1043     -2909.0116     -203.49544      11483.943    
       670   306.45938      130.95202     -3365.0673     -2909.2322     -160.7074       11483.813    
       680   305.20028      130.95514     -3365.1715     -2911.2092     -145.03889      11483.679    
       690   304.53746      130.90678     -3363.5594     -2910.583      -116.31537      11483.543    
       700   303.76786      130.89974     -3363.3247     -2911.4931     -104.58936      11483.404    
       710   302.08379      130.82355     -3360.785      -2911.4582     -59.935032      11483.263    
       720   299.94287      130.81745     -3360.5815     -2914.4393     -37.732527      11483.122    
       730   298.41288      130.79557     -3359.8523     -2915.9858     -15.339391      11482.979    
       740   298.24086      130.78443     -3359.4809     -2915.8702     -8.2136186      11482.837    
       750   299.35709      130.83781     -3361.2603     -2915.9894     -34.746694      11482.694    
       760   300.68416      130.88345     -3362.7816     -2915.5367     -56.135985      11482.55     
       770   300.46851      130.91879     -3363.9598     -2917.0356     -58.751376      11482.406    
       780   298.60936      130.84713     -3361.571      -2917.4122     -6.4022075      11482.26     
       790   296.34528      130.80306     -3360.1021     -2919.311       38.228909      11482.115    
       800   294.51378      130.78327     -3359.4424     -2921.3755      68.883422      11481.97     
       810   292.88929      130.75565     -3358.5218     -2922.8711      99.988161      11481.826    
       820   291.00232      130.68343     -3356.1142     -2923.2703      148.9078       11481.685    
       830   289.35687      130.65537     -3355.1791     -2924.7826      177.02467      11481.546    
       840   288.98685      130.64013     -3354.6711     -2924.8251      183.8902       11481.411    
       850   290.93422      130.73705     -3357.9017     -2925.1591      120.73537      11481.279    
       860   295.66359      130.80125     -3360.0417     -2920.2646      38.704062      11481.15     
       870   302.52523      130.93463     -3364.4878     -2914.5045     -92.504241      11481.022    
       880   309.52864      131.0709      -3369.03       -2908.6296     -225.94878      11480.891    
       890   314.79764      131.22888     -3374.2961     -2906.0584     -345.70371      11480.757    
       900   317.06626      131.29678     -3376.5594     -2904.9474     -394.68294      11480.616    
       910   315.46507      131.26162     -3375.3875     -2906.1571     -358.36025      11480.467    
       920   309.8675       131.12873     -3370.9578     -2910.0534     -239.73315      11480.312    
       930   301.8684       130.97293     -3365.7643     -2916.758      -84.264497      11480.153    
       940   293.87733      130.75829     -3358.6098     -2921.4895      99.512967      11479.992    
       950   287.08517      130.63024     -3354.3412     -2927.3238      241.59053      11479.832    
       960   281.87771      130.53697     -3351.2322     -2931.9605      352.04819      11479.678    
       970   278.97694      130.50823     -3350.2744     -2935.3174      407.91663      11479.53     
       980   279.56255      130.51542     -3350.514      -2934.6859      405.77199      11479.39     
       990   285.07907      130.59472     -3353.1572     -2929.1237      318.59118      11479.258    
      1000   295.23232      130.78399     -3359.4662     -2920.3305      140.68983      11479.132    
      1010   306.3948       131.005       -3366.8333     -2911.0942     -57.459896      11479.009    
      1020   313.99111      131.16871     -3372.2903     -2905.2523     -195.06899      11478.885    
      1030   316.08975      131.17396     -3372.4652     -2902.3057     -212.2825       11478.757    
      1040   313.79629      131.11715     -3370.5718     -2903.8236     -154.76325      11478.626    
      1050   309.25739      131.03639     -3367.8795     -2907.8826     -60.288177      11478.491    
      1060   304.38938      130.9296      -3364.3202     -2911.564       49.44398       11478.356    
      1070   300.4614       130.88855     -3362.9515     -2916.038       124.95465      11478.221    
      1080   297.49814      130.81897     -3360.6324     -2918.1265      196.72745      11478.088    
      1090   295.54538      130.78088     -3359.3628     -2919.7615      238.99698      11477.96     
      1100   295.40401      130.78588     -3359.5293     -2920.1382      238.28337      11477.836    
      1110   297.95228      130.85113     -3361.7044     -2918.523       183.58029      11477.717    
      1120   302.0002       130.95748     -3365.2493     -2916.0469      96.989763      11477.601    
      1130   304.59824      131.02774     -3367.5913     -2914.5245      37.145959      11477.487    
      1140   303.80467      131.00819     -3366.9396     -2915.0531      44.501703      11477.374    
      1150   300.46038      130.90346     -3363.4487     -2916.5367      112.05687      11477.262    
      1160   296.94029      130.8387      -3361.29       -2919.6139      171.9505       11477.152    
      1170   294.37571      130.76111     -3358.7035     -2920.842       229.65645      11477.046    
      1180   292.71088      130.7049      -3356.8299     -2921.4446      265.63262      11476.944    
      1190   292.90391      130.70448     -3356.8162     -2921.1438      253.98786      11476.847    
      1200   296.40359      130.74477     -3358.1588     -2917.281       188.32132      11476.755    
      1210   302.4493       130.92535     -3364.1784     -2914.308       39.97831       11476.667    
      1220   308.32628      131.03574     -3367.858      -2909.246      -82.25194       11476.58     
      1230   311.66552      131.11254     -3370.4178     -2906.839      -164.13256      11476.491    
      1240   311.46163      131.10839     -3370.2795     -2907.0039     -175.39971      11476.399    
      1250   308.80657      131.07624     -3369.2079     -2909.8816     -142.8031       11476.303    
      1260   305.85355      130.98703     -3366.2342     -2911.3002     -76.647573      11476.205    
      1270   304.35447      130.97355     -3365.7851     -2913.0809     -45.490201      11476.106    
      1280   303.96304      130.99749     -3366.583      -2914.461      -35.531404      11476.006    
      1290   303.32892      130.98908     -3366.3027     -2915.1239     -11.262281      11475.905    
      1300   301.90315      130.93363     -3364.4544     -2915.3964      37.139744      11475.804    
      1310   300.2554       130.85023     -3361.6742     -2915.0671      96.413315      11475.704    
      1320   299.48358      130.84702     -3361.5673     -2916.1082      115.59787      11475.605    
      1330   299.78806      130.84111     -3361.3702     -2915.4582      123.38243      11475.509    
      1340   300.29988      130.88268     -3362.7559     -2916.0825      107.67711      11475.416    
      1350   300.14424      130.89156     -3363.0519     -2916.6101      106.65639      11475.324    
      1360   298.89945      130.83573     -3361.1909     -2916.6006      135.67086      11475.235    
      1370   296.69003      130.80845     -3360.2816     -2918.9777      157.94656      11475.148    
      1380   294.36797      130.78295     -3359.4318     -2921.5817      176.82627      11475.064    
      1390   292.94521      130.76314     -3358.7714     -2923.0376      182.26308      11474.984    
      1400   292.85088      130.76526     -3358.8419     -2923.2484      166.65408      11474.907    
      1410   293.59252      130.7757      -3359.1901     -2922.4935      140.4748       11474.834    
      1420   294.91936      130.78169     -3359.3896     -2920.7194      111.74554      11474.763    
      1430   297.41683      130.83018     -3361.0059     -2918.6209      59.449593      11474.695    
      1440   301.23274      130.86098     -3362.0327     -2913.9718      6.0767414      11474.627    
      1450   305.13143      130.90916     -3363.6388     -2909.779      -48.980425      11474.56     
      1460   307.22653      130.96575     -3365.5249     -2908.5487     -85.247637      11474.492    
      1470   306.96298      130.99996     -3366.6655     -2910.0813     -86.257456      11474.423    
      1480   305.84058      130.98588     -3366.196      -2911.2813     -55.676308      11474.352    
      1490   305.68599      131.00254     -3366.7514     -2912.0667     -40.961806      11474.279    
      1500   306.56811      131.03165     -3367.7216     -2911.7248     -37.731188      11474.207    
      1510   306.95957      131.05113     -3368.3712     -2911.7921     -27.579876      11474.133    
      1520   305.73497      131.05096     -3368.3653     -2913.6077      0.98467727     11474.059    
      1530   303.03549      130.99445     -3366.4816     -2915.7393      58.881996      11473.985    
      1540   300.15608      130.94626     -3364.8754     -2918.4159      108.68599      11473.912    
      1550   298.85837      130.90522     -3363.5073     -2918.9781      135.03981      11473.842    
      1560   300.13348      130.91826     -3363.942      -2917.5162      112.15638      11473.774    
      1570   303.22412      130.98253     -3366.0844     -2915.0615      50.217679      11473.708    
      1580   305.89508      130.98735     -3366.2449     -2911.2492      14.277724      11473.643    
      1590   306.22849      130.99787     -3366.5958     -2911.1041      1.1600257      11473.579    
      1600   303.60605      130.90746     -3363.5818     -2911.9909      59.253839      11473.515    
      1610   299.04018      130.78326     -3359.442      -2914.6424      152.01397      11473.452    
      1620   294.82154      130.65395     -3355.1318     -2916.6071      247.21116      11473.392    
      1630   292.42977      130.63524     -3354.508      -2919.5409      283.47373      11473.337    
      1640   292.09941      130.67233     -3355.7444     -2921.2687      272.16245      11473.287    
      1650   294.32151      130.71159     -3357.0528     -2919.2719      228.18694      11473.242    
      1660   299.26441      130.81572     -3360.5241     -2915.391       128.50558      11473.202    
      1670   305.64557      130.96372     -3365.4574     -2910.8327     -1.9441829      11473.164    
      1680   310.71666      131.07062     -3369.0206     -2906.8531     -100.66578      11473.127    
      1690   311.98992      131.07983     -3369.3278     -2905.2664     -120.27002      11473.087    
      1700   309.11101      131.04754     -3368.2515     -2908.4723     -77.367891      11473.045    
      1710   303.978        130.95958     -3365.3192     -2913.175       14.970743      11473.002    
      1720   299.0142       130.89868     -3363.2893     -2918.5283      101.5089       11472.96     
      1730   295.30739      130.8149      -3360.4966     -2921.2492      185.79185      11472.919    
      1740   293.43899      130.75907     -3358.6357     -2922.1674      241.08647      11472.882    
      1750   293.66215      130.77542     -3359.1805     -2922.3804      245.54616      11472.849    
      1760   295.63486      130.82187     -3360.7291     -2920.9947      216.28767      11472.821    
      1770   298.29107      130.83431     -3361.1435     -2917.4582      188.58342      11472.798    
      1780   300.35117      130.9101      -3363.6701     -2916.9205      138.41486      11472.777    
      1790   301.24298      130.87636     -3362.5455     -2914.4693      138.96527      11472.76     
      1800   300.89161      130.82629     -3360.8764     -2913.3229      157.31062      11472.745    
      1810   299.37267      130.80872     -3360.2906     -2914.9964      175.07952      11472.734    
      1820   297.01446      130.74325     -3358.1082     -2916.3217      218.6312       11472.726    
      1830   294.54524      130.7269      -3357.5635     -2919.4497      244.71405      11472.722    
      1840   292.15924      130.71224     -3357.0746     -2922.5099      269.25322      11472.723    
      1850   289.60563      130.6509      -3355.0301     -2924.2637      310.64642      11472.729    
      1860   287.41988      130.61245     -3353.7482     -2926.2329      336.46574      11472.741    
      1870   287.17962      130.58413     -3352.8043     -2925.6464      338.11919      11472.76     
      1880   290.02892      130.63161     -3354.3871     -2922.991       280.68834      11472.785    
      1890   295.29511      130.73793     -3357.931      -2918.7019      177.63165      11472.815    
      1900   300.7665       130.86408     -3362.1361     -2914.7687      64.600661      11472.849    
      1910   304.49598      130.92872     -3364.2908     -2911.3761     -7.5587118      11472.885    
      1920   305.81054      130.94244     -3364.7479     -2909.8779     -33.420234      11472.92     
      1930   305.17977      130.94203     -3364.7343     -2910.8025     -28.746032      11472.955    
      1940   303.72679      130.93743     -3364.5809     -2912.8104     -8.2195622      11472.989    
      1950   302.78786      130.9152      -3363.8399     -2913.4659      20.012906      11473.024    
      1960   303.13048      130.91003     -3363.6676     -2912.784       33.437634      11473.059    
      1970   304.58589      130.92265     -3364.0884     -2911.04        30.119685      11473.094    
      1980   306.11915      130.95655     -3365.2182     -2909.8892      16.40276       11473.13     
      1990   306.47247      130.97142     -3365.7141     -2909.8596      18.43538       11473.167    
      2000   304.84543      130.8807      -3362.6901     -2909.2556      74.736705      11473.204    
      2010   301.70989      130.87892     -3362.6308     -2913.8602      106.073        11473.243    
      2020   299.18306      130.79831     -3359.9436     -2914.9314      155.97379      11473.283    
      2030   299.52588      130.8209      -3360.6967     -2915.1746      138.09114      11473.327    
      2040   301.54212      130.88006     -3362.6687     -2914.1477      89.901937      11473.374    
      2050   302.00553      130.90501     -3363.5005     -2914.2901      66.525501      11473.422    
      2060   300.14823      130.81768     -3360.5894     -2914.1417      103.03913      11473.472    
      2070   298.70584      130.76213     -3358.7377     -2914.4354      121.88699      11473.524    
      2080   299.89952      130.76583     -3358.8609     -2912.7831      95.56036       11473.578    
      2090   302.48516      130.82026     -3360.6754     -2910.7516      41.517159      11473.634    
      2100   303.12641      130.83687     -3361.229      -2910.3514      23.881933      11473.691    
      2110   300.40785      130.77224     -3359.0748     -2912.2409      71.96081       11473.749    
      2120   296.14503      130.65401     -3355.1336     -2914.6403      158.63041      11473.808    
      2130   293.10184      130.63057     -3354.3525     -2918.3857      201.23741      11473.87     
      2140   292.65075      130.65746     -3355.2487     -2919.9529      201.41169      11473.937    
      2150   294.87534      130.70871     -3356.9569     -2918.3522      166.64214      11474.007    
      2160   298.87878      130.83403     -3361.1344     -2916.5749      86.902048      11474.08     
      2170   303.46208      130.91943     -3363.981      -2912.6041      19.409058      11474.155    
      2180   307.57827      130.99978     -3366.6595     -2909.1601     -36.512027      11474.23     
      2190   310.04524      131.05194     -3368.3982     -2907.2294     -62.093999      11474.305    
      2200   310.29439      131.07281     -3369.0937     -2907.5543     -54.478537      11474.379    
      2210   309.16554      131.0589      -3368.6298     -2908.7695     -23.000515      11474.452    
      2220   307.97764      131.0597      -3368.6568     -2910.5634     -3.0724132      11474.524    
      2230   307.65888      131.06564     -3368.8547     -2911.2355     -1.3393209      11474.597    
      2240   308.2316       131.04165     -3368.0551     -2909.584      -4.7369461      11474.67     
      2250   309.33695      131.09116     -3369.7053     -2909.59       -45.504588      11474.742    
      2260   310.17389      131.05666     -3368.5552     -2907.195      -52.758475      11474.814    
      2270   309.7985       131.04586     -3368.1955     -2907.3937     -55.453399      11474.885    
      2280   307.78142      131.03073     -3367.6909     -2909.8894     -37.420617      11474.955    
      2290   304.75258      131.01163     -3367.0544     -2913.758      -4.3297888      11475.024    
      2300   301.50065      130.93308     -3364.436      -2915.9766      56.493504      11475.093    
      2310   297.88468      130.8317      -3361.0566     -2917.9757      129.67321      11475.164    
      2320   293.52471      130.74746     -3358.2487     -2921.6529      199.23316      11475.237    
      2330   289.25924      130.66113     -3355.371      -2925.1198      259.82511      11475.314    
      2340   287.51327      130.6198      -3353.9934     -2926.3392      270.89696      11475.396    
      2350   290.20827      130.67269     -3355.7562     -2924.0934      198.71906      11475.483    
      2360   296.39155      130.78559     -3359.5195     -2918.6596      68.774192      11475.574    
      2370   302.49799      130.9049      -3363.4965     -2913.5537     -62.978223      11475.666    
      2380   305.56385      130.94927     -3364.9758     -2910.4727     -133.38135      11475.758    
      2390   305.06346      130.93606     -3364.5354     -2910.7766     -138.68891      11475.847    
      2400   302.32117      130.89498     -3363.166      -2913.4862     -101.0816       11475.934    
      2410   299.2024       130.84664     -3361.5546     -2916.5137     -48.897147      11476.018    
      2420   297.20055      130.83185     -3361.0617     -2918.9984     -14.981469      11476.102    
      2430   296.72703      130.81523     -3360.5078     -2919.1488      4.681777       11476.186    
      2440   297.74143      130.83548     -3361.1826     -2918.3147     -9.1149552      11476.27     
      2450   299.95044      130.94998     -3364.9992     -2918.8457     -74.690475      11476.354    
      2460   302.40978      130.94319     -3364.7731     -2914.9615     -100.55207      11476.436    
      2470   304.76913      130.99361     -3366.4535     -2913.1325     -150.15279      11476.517    
      2480   307.34308      131.03633     -3367.8777     -2910.7282     -200.13414      11476.594    
      2490   310.13028      131.10705     -3370.235      -2908.9397     -261.09011      11476.668    
      2500   312.16809      131.14746     -3371.5821     -2907.2557     -298.88533      11476.737    
      2510   311.79805      131.10942     -3370.3139     -2906.5379     -278.42162      11476.801    
      2520   307.93836      130.99944     -3366.648      -2908.6131     -192.15403      11476.859    
      2530   301.49138      130.88643     -3362.881      -2914.4355     -75.108442      11476.914    
      2540   294.85934      130.73448     -3357.816      -2919.2351      61.983023      11476.967    
      2550   290.21718      130.6331      -3354.4367     -2922.7606      159.4346       11477.021    
      2560   289.28163      130.63147     -3354.3823     -2924.0978      177.70101      11477.079    
      2570   292.75936      130.72342     -3357.4473     -2921.99        109.02826      11477.14     
      2580   299.60528      130.83361     -3361.1202     -2915.48       -6.4283864      11477.203    
      2590   306.87462      131.01135     -3367.045      -2910.5923     -157.06197      11477.266    
      2600   311.48524      131.09412     -3369.8039     -2906.4933     -247.72913      11477.326    
      2610   311.88616      131.14215     -3371.4049     -2907.4979     -278.80869      11477.382    
      2620   307.76554      131.09421     -3369.8069     -2912.029      -219.74412      11477.432    
      2630   300.02738      130.90086     -3363.3619     -2917.0939     -62.313831      11477.478    
      2640   291.54046      130.73647     -3357.8824     -2924.2381      96.292275      11477.524    
      2650   285.68206      130.62345     -3354.1149     -2929.1845      211.16054      11477.571    
      2660   283.72507      130.62168     -3354.0561     -2932.0365      241.72295      11477.622    
      2670   285.1661       130.64643     -3354.881      -2930.718       219.8913       11477.677    
      2680   289.68793      130.75471     -3358.4903     -2927.6015      127.76644      11477.737    
      2690   296.39504      130.89774     -3363.258      -2922.3928     -3.6104444      11477.8      
      2700   302.70906      130.98591     -3366.1969     -2915.9401     -112.05303      11477.862    
      2710   306.2162       131.03125     -3367.7082     -2912.2348     -175.95725      11477.923    
      2720   306.58545      131.05099     -3368.3665     -2912.3438     -195.50548      11477.98     
      2730   304.81298      131.0408      -3368.0268     -2914.6406     -177.47624      11478.033    
      2740   302.12084      130.9575      -3365.2499     -2915.8681     -116.73935      11478.084    
      2750   299.18652      130.8656      -3362.1867     -2917.1694     -46.468442      11478.132    
      2760   296.29575      130.84562     -3361.5207     -2920.8033     -3.8554981      11478.179    
      2770   294.10932      130.7683      -3358.9434     -2921.4781      51.893045      11478.226    
      2780   293.35815      130.75044     -3358.3481     -2922.0001      68.441837      11478.274    
      2790   294.36158      130.8378      -3361.2599     -2923.4193      26.184343      11478.324    
      2800   296.91681      130.86851     -3362.2837     -2920.6425     -10.968767      11478.374    
      2810   300.44446      130.93789     -3364.5965     -2917.7081     -72.573041      11478.424    
      2820   303.77682      131.00749     -3366.9164     -2915.0714     -131.07819      11478.473    
      2830   305.45584      130.99364     -3366.4548     -2912.1124     -138.52617      11478.52     
      2840   304.33957      130.94109     -3364.7031     -2912.0211     -101.44997      11478.564    
      2850   300.76631      130.88409     -3362.8031     -2915.436      -37.940485      11478.606    
      2860   296.70674      130.84135     -3361.3783     -2920.0496      24.691199      11478.647    
      2870   293.927        130.80386     -3360.1288     -2922.9346      70.63848       11478.69     
      2880   292.7495       130.76599     -3358.8662     -2923.4236      95.521951      11478.733    
      2890   292.95987      130.73925     -3357.975      -2922.2194      93.141241      11478.779    
      2900   295.18664      130.80302     -3360.1007     -2921.033       29.226657      11478.826    
      2910   299.31288      130.89988     -3363.3292     -2918.124      -67.956095      11478.874    
      2920   303.0173       130.93332     -3364.4442     -2913.7289     -135.40283      11478.921    
      2930   304.35019      130.96394     -3365.4647     -2912.7668     -174.5883       11478.965    
      2940   303.73791      130.90934     -3363.6447     -2911.8575     -154.20128      11479.006    
      2950   302.1691       130.92692     -3364.2305     -2914.7769     -141.98851      11479.044    
      2960   300.00813      130.83827     -3361.2758     -2915.0364     -76.535928      11479.079    
      2970   297.99617      130.81966     -3360.6552     -2917.4085     -34.474831      11479.113    
      2980   297.11036      130.84264     -3361.4213     -2919.4921     -17.700906      11479.146    
      2990   297.6986       130.90618     -3363.5394     -2920.7353     -30.694241      11479.179    
      3000   298.76091      130.89999     -3363.3329     -2918.9487     -24.582848      11479.211    
      3010   299.04373      130.91018     -3363.6726     -2918.8677     -22.385545      11479.244    
      3020   298.29428      130.88057     -3362.6857     -2918.9955     -1.0022359      11479.275    
      3030   297.06989      130.88125     -3362.7085     -2920.8395      7.5817531      11479.307    
      3040   296.16805      130.8526      -3361.7533     -2921.2258      17.884776      11479.339    
      3050   296.62759      130.86625     -3362.2083     -2920.9973     -6.4207948      11479.372    
      3060   298.90024      130.91911     -3363.9703     -2919.3789     -65.660749      11479.404    
      3070   301.69139      130.9585      -3365.2832     -2916.5401     -123.11673      11479.436    
      3080   302.55233      131.01154     -3367.0515     -2917.0278     -164.7884       11479.465    
      3090   301.1446       130.92964     -3364.3213     -2916.3916     -129.0717       11479.491    
      3100   299.66686      130.85427     -3361.8089     -2916.0771     -87.236545      11479.514    
      3110   299.46917      130.84339     -3361.4463     -2916.0086     -72.882164      11479.536    
      3120   299.71636      130.89641     -3363.2137     -2917.4083     -79.59477       11479.557    
      3130   299.70383      130.89693     -3363.231      -2917.4443     -57.487565      11479.576    
      3140   299.37493      130.8874      -3362.9132     -2917.6157     -25.786257      11479.595    
      3150   298.35405      130.86836     -3362.2788     -2918.4998      15.976875      11479.613    
      3160   296.2343       130.84367     -3361.4558     -2920.8297      66.340709      11479.631    
      3170   293.50551      130.74402     -3358.1341     -2921.5669      141.35988      11479.651    
      3180   291.78161      130.74275     -3358.0917     -2924.0886      156.64223      11479.673    
      3190   293.2612       130.7723      -3359.0768     -2922.873       118.11131      11479.698    
      3200   299.17247      130.87623     -3362.5411     -2917.5447      1.7902343      11479.726    
      3210   307.67733      131.05852     -3368.6172     -2910.9705     -170.52206      11479.753    
      3220   314.75551      131.16973     -3372.3243     -2904.1494     -300.32037      11479.778    
      3230   317.83317      131.23854     -3374.6181     -2901.8654     -369.4453       11479.796    
      3240   316.78431      131.23875     -3374.6249     -2903.4322     -363.29907      11479.808    
      3250   313.14496      131.14108     -3371.3692     -2905.5898     -283.41614      11479.813    
      3260   308.51329      131.0558      -3368.5265     -2909.6364     -190.19415      11479.813    
      3270   303.7518       130.9759      -3365.8634     -2914.0557     -95.441821      11479.809    
      3280   299.16827      130.91142     -3363.7139     -2918.7238     -11.408925      11479.804    
      3290   295.05197      130.85213     -3361.7375     -2922.8701      58.900334      11479.798    
      3300   292.03284      130.78262     -3359.4208     -2925.0441      114.62087      11479.793    
      3310   290.54747      130.71929     -3357.3098     -2925.1425      146.7134       11479.791    
      3320   290.44824      130.73813     -3357.9376     -2925.9179      129.22575      11479.791    
      3330   291.57456      130.80445     -3360.1482     -2926.4532      81.387128      11479.794    
      3340   293.58215      130.85635     -3361.8783     -2925.1971      33.903998      11479.798    
      3350   295.6889       130.88253     -3362.751      -2922.9362     -0.31907408     11479.803    
      3360   297.53402      130.91148     -3363.7161     -2921.1568     -28.894532      11479.808    
      3370   299.48742      130.94264     -3364.7546     -2919.2898     -54.07871       11479.813    
      3380   301.34681      130.97591     -3365.8638     -2917.6332     -75.505522      11479.816    
      3390   301.96759      130.96926     -3365.6419     -2916.488      -70.958161      11479.819    
      3400   300.32955      130.91861     -3363.9537     -2917.2362     -32.781555      11479.819    
      3410   296.23137      130.85166     -3361.722      -2921.1003      26.863715      11479.82     
      3420   290.77623      130.69914     -3356.638      -2924.1304      123.04187      11479.821    
      3430   285.88127      130.61675     -3353.8915     -2928.6648      178.19072      11479.824    
      3440   283.87664      130.56684     -3352.2279     -2929.9829      185.53296      11479.831    
      3450   286.86914      130.66525     -3355.5082     -2928.8121      87.998795      11479.841    
      3460   293.47583      130.80644     -3360.2146     -2923.6916     -55.56361       11479.854    
      3470   299.94349      130.91735     -3363.9115     -2917.7683     -179.3334       11479.865    
      3480   304.05614      130.99437     -3366.4789     -2914.2184     -255.26248      11479.872    
      3490   304.95571      131.02452     -3367.4842     -2913.8857     -268.06988      11479.876    
      3500   302.9491       130.97831     -3365.9436     -2915.3298     -211.26366      11479.874    
      3510   299.58594      130.92157     -3364.0524     -2918.441      -130.16885      11479.868    
      3520   296.84075      130.87289     -3362.4298     -2920.9017     -58.617025      11479.86     
      3530   296.19376      130.86899     -3362.2996     -2921.7339     -29.450073      11479.85     
      3540   297.86861      130.93007     -3364.3357     -2921.2787     -55.695895      11479.84     
      3550   300.87577      131.01319     -3367.1062     -2919.5763     -110.40653      11479.829    
      3560   303.05442      131.03675     -3367.8917     -2917.1212     -139.69891      11479.816    
      3570   302.87164      131.04198     -3368.066      -2917.5674     -141.91239      11479.801    
      3580   301.19447      130.99438     -3366.4794     -2918.4755     -109.78477      11479.783    
      3590   300.29579      131.01331     -3367.1104     -2920.4432     -107.41654      11479.762    
      3600   300.79452      131.02002     -3367.3339     -2919.9248     -108.8462       11479.74     
      3610   301.12527      131.00374     -3366.7914     -2918.8904     -96.436521      11479.716    
      3620   300.01185      130.92783     -3364.2609     -2918.016      -44.803132      11479.69     
      3630   297.87472      130.87925     -3362.6415     -2919.5755      8.811676       11479.663    
      3640   295.92481      130.8738      -3362.46       -2922.2943      44.495718      11479.636    
      3650   294.72724      130.82772     -3360.9242     -2922.5397      84.259207      11479.611    
      3660   294.2397       130.83889     -3361.2965     -2923.6372      87.411529      11479.587    
      3670   294.43586      130.82388     -3360.796      -2922.8449      84.113435      11479.564    
      3680   295.34556      130.84635     -3361.5451     -2922.2409      48.279505      11479.544    
      3690   297.73586      130.8464      -3361.5466     -2918.6871     -0.17261421     11479.524    
      3700   301.74564      130.95691     -3365.2303     -2916.4065     -105.87901      11479.504    
      3710   305.17566      131.01674     -3367.2248     -2913.2991     -182.50265      11479.482    
      3720   305.85088      131.04654     -3368.2181     -2913.2881     -214.87562      11479.457    
      3730   304.01882      130.99992     -3366.6641     -2914.4591     -188.27476      11479.428    
      3740   301.6523       130.99027     -3366.3424     -2917.6575     -164.97786      11479.395    
      3750   300.403        130.95511     -3365.1702     -2918.3435     -139.08529      11479.36     
      3760   300.75552      130.94716     -3364.9052     -2917.5541     -137.04029      11479.322    
      3770   302.15474      130.96753     -3365.5842     -2916.152      -152.94268      11479.281    
      3780   303.09441      131.00656     -3366.8855     -2916.0555     -168.3867       11479.237    
      3790   302.03633      130.96727     -3365.5755     -2916.3194     -133.47061      11479.19     
      3800   298.83175      130.93347     -3364.4491     -2919.9595     -80.331169      11479.141    
      3810   294.62944      130.87634     -3362.5446     -2924.3056     -11.942201      11479.09     
      3820   291.2704       130.81584     -3360.5279     -2927.2852      44.478303      11479.039    
      3830   290.73328      130.82601     -3360.8671     -2928.4234      40.055092      11478.988    
      3840   294.25687      130.8679      -3362.2633     -2924.5785     -20.453434      11478.939    
      3850   300.93186      130.99488     -3366.4959     -2918.8825     -144.74974      11478.888    
      3860   308.02211      131.12624     -3370.8747     -2912.7151     -273.57833      11478.836    
      3870   312.69748      131.22252     -3374.0841     -2908.9703     -360.30938      11478.778    
      3880   312.51784      131.228       -3374.2667     -2909.4201     -358.56129      11478.713    
      3890   306.53979      131.13221     -3371.0736     -2915.1189     -258.894        11478.642    
      3900   296.75827      130.98205     -3366.0683     -2924.6629     -101.58635      11478.565    
      3910   287.27826      130.81034     -3360.3447     -2933.04        57.979732      11478.487    
      3920   282.52632      130.69136     -3356.3786     -2936.1421      148.85892      11478.41     
      3930   284.43444      130.70974     -3356.9913     -2933.9166      123.57541      11478.335    
      3940   290.41843      130.83111     -3361.0369     -2929.0615      19.955941      11478.263    
      3950   295.87218      130.89478     -3363.1592     -2923.0718     -57.138026      11478.191    
      3960   297.58823      130.8936      -3363.1199     -2920.48       -76.402286      11478.118    
      3970   295.84454      130.87631     -3362.5438     -2922.4975     -61.294061      11478.044    
      3980   293.91381      130.80807     -3360.269      -2923.0945     -29.871487      11477.969    
      3990   294.97096      130.81372     -3360.4572     -2921.7102     -57.916841      11477.893    
      4000   298.89713      130.89501     -3363.1671     -2918.5803     -143.9489       11477.816    
      4010   302.84882      131.03612     -3367.8705     -2917.4058     -254.09512      11477.736    
      4020   304.24884      131.07221     -3369.0737     -2916.5267     -298.8045       11477.651    
      4030   302.5196       131.0829      -3369.4299     -2919.4549     -300.47377      11477.561    
      4040   299.52359      131.02548     -3367.5159     -2921.9972     -257.58057      11477.465    
      4050   297.96211      130.98415     -3366.1385     -2922.9424     -225.7145       11477.364    
      4060   298.73563      130.99235     -3366.4116     -2922.065      -225.58381      11477.259    
      4070   299.91104      131.09521     -3369.8402     -2923.7453     -256.30592      11477.149    
      4080   298.28533      131.03291     -3367.7636     -2924.0868     -193.38563      11477.035    
      4090   292.63832      130.94746     -3364.9155     -2929.6382     -86.936048      11476.917    
      4100   285.7817       130.83066     -3361.0219     -2935.9433      34.267836      11476.797    
      4110   282.67768      130.74739     -3358.2462     -2937.7846      97.527415      11476.678    
      4120   285.82096      130.75803     -3358.601      -2933.464       60.322091      11476.561    
      4130   292.22156      130.87947     -3362.6491     -2927.9917     -55.050536      11476.445    
      4140   297.00501      130.99318     -3366.4392     -2924.6668     -154.63456      11476.328    
      4150   298.00819      131.01344     -3367.1148     -2923.8502     -179.88585      11476.208    
      4160   296.62699      130.96355     -3365.4518     -2924.2416     -147.66481      11476.084    
      4170   295.29618      130.9857      -3366.1901     -2926.9594     -132.28976      11475.958    
      4180   294.85434      131.01728     -3367.2428     -2928.6693     -120.67977      11475.829    
      4190   294.77364      131.03616     -3367.8719     -2929.4185     -104.09499      11475.698    
      4200   294.32617      131.01238     -3367.0795     -2929.2916     -68.982077      11475.565    
      4210   293.33207      130.95028     -3365.0094     -2928.7002     -21.032997      11475.431    
      4220   292.82116      130.91331     -3363.777      -2928.2277      3.126093       11475.296    
      4230   294.28663      130.94243     -3364.7477     -2927.0186     -24.185207      11475.161    
      4240   297.87616      130.98146     -3366.0488     -2922.9806     -80.339908      11475.026    
      4250   302.14775      131.07324     -3369.108      -2919.6861     -164.18952      11474.89     
      4260   304.91583      131.12        -3370.6667     -2917.1275     -214.69316      11474.75     
      4270   304.58241      131.11017     -3370.339      -2917.2958     -209.63803      11474.606    
      4280   301.00037      131.01341     -3367.1137     -2919.3985     -133.99125      11474.458    
      4290   295.30117      130.95039     -3365.013      -2925.7749     -46.185348      11474.308    
      4300   289.61124      130.80472     -3360.1573     -2929.3825      75.365736      11474.156    
      4310   286.1506       130.71039     -3357.0131     -2931.3858      155.29581      11474.007    
      4320   286.14529      130.67529     -3355.8431     -2930.2237      177.2566       11473.86     
      4330   288.83063      130.77537     -3359.1791     -2929.5654      118.84732      11473.716    
      4340   292.24057      130.87382     -3362.4605     -2927.7748      49.470838      11473.575    
      4350   295.44333      130.91686     -3363.8953     -2924.4458      0.81529657     11473.434    
      4360   298.40173      130.99462     -3366.4875     -2922.6375     -57.426897      11473.294    
      4370   300.45208      131.06269     -3368.7563     -2921.8566     -99.027452      11473.153    
      4380   300.106        130.99724     -3366.5747     -2920.1898     -63.174663      11473.01     
      4390   296.84559      130.96574     -3365.5247     -2923.9894     -10.473393      11472.866    
      4400   292.08824      130.89323     -3363.1077     -2928.6486      70.247493      11472.721    
      4410   288.51062      130.87129     -3362.3763     -2933.2386      114.95075      11472.578    
      4420   288.32148      130.85622     -3361.8741     -2933.0177      117.39904      11472.437    
      4430   291.95929      130.91556     -3363.852      -2929.5847      48.999632      11472.299    
      4440   298.08081      131.02727     -3367.5758     -2924.2032     -66.332379      11472.161    
      4450   304.4985       131.11724     -3370.5748     -2917.6564     -175.25704      11472.021    
      4460   308.85967      131.21846     -3373.9486     -2914.5432     -265.11869      11471.879    
      4470   309.63957      131.21037     -3373.6789     -2913.1135     -275.41477      11471.731    
      4480   306.80456      131.18706     -3372.9019     -2916.5534     -241.21634      11471.578    
      4490   301.54032      131.04537     -3368.1791     -2919.6608     -136.31817      11471.421    
      4500   296.11956      130.93622     -3364.5407     -2924.0853     -42.405569      11471.261    
      4510   292.64234      130.92019     -3364.0062     -2928.7229     -3.4877834      11471.1      
      4520   291.67505      130.88993     -3362.9978     -2929.1533      13.277286      11470.939    
      4530   293.07438      130.91356     -3363.7852     -2927.8593     -16.252205      11470.778    
      4540   296.42251      130.98704     -3366.2347     -2925.3286     -84.567083      11470.616    
      4550   300.91141      131.08274     -3369.4246     -2921.8417     -170.40862      11470.453    
      4560   305.0534       131.19941     -3373.3138     -2919.57       -256.3926       11470.287    
      4570   307.24023      131.22674     -3374.2248     -2917.2283     -283.105        11470.116    
      4580   306.50589      131.22065     -3374.0217     -2918.1174     -263.60862      11469.939    
      4590   303.28742      131.13469     -3371.1564     -2920.0394     -184.54031      11469.758    
      4600   298.77462      131.05505     -3368.5017     -2924.0971     -93.810337      11469.573    
      4610   294.68714      130.95604     -3365.2014     -2926.8766     -3.1469428      11469.386    
      4620   292.73749      130.87507     -3362.5023     -2927.0775      53.716431      11469.199    
      4630   293.64304      130.92857     -3364.2856     -2927.5138      25.435725      11469.013    
      4640   296.58014      130.99404     -3366.4681     -2925.3277     -32.21274       11468.827    
      4650   299.71891      131.04378     -3368.1258     -2922.3167     -86.890762      11468.641    
      4660   300.82102      131.08141     -3369.3802     -2921.9317     -114.17661      11468.453    
      4670   298.58645      131.01059     -3367.0196     -2922.8949     -61.40632       11468.263    
      4680   293.74512      130.92055     -3364.0184     -2927.0948      30.918515      11468.072    
      4690   288.74969      130.84327     -3361.4425     -2931.9492      125.01769      11467.881    
      4700   285.69831      130.76839     -3358.9464     -2933.9918      199.66095      11467.693    
      4710   285.35485      130.75405     -3358.4682     -2934.0245      220.24344      11467.508    
      4720   287.61134      130.7705      -3359.0166     -2931.2166      198.7251       11467.328    
      4730   291.18149      130.86381     -3362.1271     -2929.0167      132.1057       11467.151    
      4740   293.96773      130.89837     -3363.2789     -2926.0242      93.325026      11466.977    
      4750   295.42621      130.92685     -3364.2282     -2924.8041      68.833144      11466.805    
      4760   297.2018       130.99305     -3366.4351     -2924.3699      28.393041      11466.634    
      4770   300.38637      131.04731     -3368.2436     -2921.4417     -18.936207      11466.463    
      4780   304.08552      131.09978     -3369.9928     -2917.6886     -69.222626      11466.292    
      4790   306.56642      131.1482      -3371.6067     -2915.6124     -104.007        11466.12     
      4800   306.37008      131.14058     -3371.3528     -2915.6506     -89.570989      11465.946    
      4810   303.57285      131.11375     -3370.4583     -2918.9167     -40.887468      11465.769    
      4820   299.44366      131.07676     -3369.2253     -2923.8255      24.447043      11465.593    
      4830   295.30211      130.99613     -3366.5378     -2927.2983      103.63784      11465.416    
      4840   292.14232      130.91504     -3363.8347     -2929.2951      168.05049      11465.242    
      4850   291.08328      130.89846     -3363.2821     -2930.3178      183.18716      11465.071    
      4860   292.43907      130.90522     -3363.5073     -2928.5263      165.49491      11464.903    
      4870   294.5992       130.90787     -3363.5958     -2925.4018      144.81381      11464.738    
      4880   295.18754      130.92334     -3364.1114     -2925.0423      134.78775      11464.577    
      4890   294.00917      130.88457     -3362.8191     -2925.5028      161.52084      11464.418    
      4900   292.59934      130.85312     -3361.7707     -2926.5514      185.66069      11464.262    
      4910   292.49122      130.83912     -3361.3039     -2926.2454      185.26695      11464.109    
      4920   294.8324       130.91217     -3363.7391     -2925.1982      124.47117      11463.96     
      4930   299.42967      131.03316     -3367.7721     -2922.3931      23.58458       11463.814    
      4940   304.50874      131.11238     -3370.4128     -2917.4791     -63.862144      11463.667    
      4950   307.99306      131.19216     -3373.0721     -2914.9558     -130.48743      11463.52     
      4960   308.60598      131.18436     -3372.812      -2913.784      -127.07711      11463.37     
      4970   306.13831      131.14804     -3371.6015     -2916.2439     -72.969762      11463.218    
      4980   301.17914      131.03952     -3367.9841     -2920.0029      40.225296      11463.065    
      4990   295.2032       130.97825     -3365.9416     -2926.8492      147.31738      11462.912    
      5000   290.68078      130.8507      -3361.69       -2929.3243      263.48913      11462.763    
      5010   289.31704      130.85963     -3361.9876     -2931.6504      292.66007      11462.618    
      5020   290.40715      130.88871     -3362.9568     -2930.9982      283.77485      11462.478    
      5030   292.0417       130.9244      -3364.1468     -2929.7569      259.65517      11462.344    
      5040   293.15535      130.9696      -3365.6535     -2929.6071      229.90819      11462.215    
      5050   294.41949      131.00194     -3366.7312     -2928.8046      198.17347      11462.091    
      5060   297.38411      131.05554     -3368.518      -2926.1817      140.59904      11461.97     
      5070   302.12802      131.13212     -3371.0706     -2921.6781      57.951468      11461.852    
      5080   306.82238      131.21175     -3373.7251     -2917.3501     -22.138651      11461.735    
      5090   309.0862       131.28746     -3376.2488     -2916.5065     -71.759017      11461.617    
      5100   307.42755      131.19176     -3373.0586     -2915.7834     -12.304279      11461.499    
      5110   302.79611      121.0961      -3369.8699     -2919.4836      13.503857      11461.379    
      5120   298.49344      120.97904     -3365.9679     -2921.9815      103.00178      11461.26     
      5130   296.34828      120.95217     -3365.0724     -2924.2768      135.35622      11461.143    
      5140   297.25641      120.97236     -3365.7454     -2923.5991      119.98713      11461.028    
      5150   300.54961      121.07488     -3369.1628     -2922.118       50.403652      11460.916    
      5160   304.34421      121.15894     -3371.9646     -2919.2757     -18.607383      11460.804    
      5170   306.5545       121.25787     -3375.2622     -2919.2856     -81.410663      11460.693    
      5180   305.99796      121.2477      -3374.9232     -2919.7744     -82.84824       11460.579    
      5190   303.83637      121.1968      -3373.2268     -2921.2932     -60.737878      11460.465    
      5200   303.13131      121.11301     -3370.4335     -2919.5487     -42.816595      11460.349    
      5210   305.83031      121.16158     -3372.0525     -2917.1531     -105.08117      11460.232    
      5220   310.72431      121.26555     -3375.5184     -2913.3396     -204.88037      11460.113    
      5230   315.46137      121.3037      -3376.7902     -2907.5653     -272.50169      11459.99     
      5240   318.8588       121.30981     -3376.9936     -2902.7153     -307.8135       11459.862    
      5250   320.27012      121.33151     -3377.717      -2901.3394     -323.75574      11459.728    
      5260   319.23447      121.3525      -3378.4167     -2903.5796     -315.06236      11459.588    
      5270   317.03257      121.32481     -3377.4936     -2905.9317     -278.67735      11459.442    
      5280   316.1236       121.28513     -3376.1709     -2905.961      -249.20872      11459.29     
      5290   316.64501      121.29114     -3376.3712     -2905.3857     -248.27907      11459.134    
      5300   316.1099       121.29774     -3376.5914     -2906.4019     -239.70041      11458.972    
      5310   313.26086      121.2903      -3376.3432     -2910.3914     -207.35183      11458.807    
      5320   309.0562       121.18751     -3372.9168     -2913.2192     -128.86905      11458.637    
      5330   305.34991      121.06614     -3368.8712     -2914.6864     -49.427701      11458.465    
      5340   302.69481      121.09789     -3369.9296     -2919.694      -38.469676      11458.291    
      5350   299.53483      121.09301     -3369.7671     -2924.2318     -11.791499      11458.117    
      5360   294.89283      121.01007     -3367.0024     -2928.3717      51.430985      11457.943    
      5370   291.15132      120.92755     -3364.2517     -2931.1861      100.17916      11457.769    
      5380   291.79528      120.95157     -3365.0523     -2931.0289      66.214191      11457.597    
      5390   297.00941      121.02233     -3367.4108     -2925.6319     -26.842221      11457.427    
      5400   304.04243      121.13385     -3371.1285     -2918.8884     -150.22083      11457.256    
      5410   309.99838      121.24184     -3374.728      -2913.6289     -258.55818      11457.081    
      5420   313.5099       121.27436     -3375.812      -2909.4898     -309.02498      11456.902    
      5430   314.41738      121.29149     -3376.3829     -2908.7109     -319.75289      11456.718    
      5440   312.5202       121.28178     -3376.0594     -2911.2093     -284.79565      11456.527    
      5450   307.90723      121.19947     -3373.3156     -2915.3269     -193.69844      11456.33     
      5460   302.38744      121.11271     -3370.4238     -2920.6454     -95.345171      11456.13     
      5470   298.99358      121.08403     -3369.4675     -2924.7373     -45.121844      11455.928    
      5480   299.73863      121.06685     -3368.8952     -2923.0567     -47.069133      11455.725    
      5490   304.61435      121.17145     -3372.3816     -2919.2908     -141.38096      11455.521    
      5500   311.41053      121.29101     -3376.367      -2913.1674     -262.92285      11455.314    
      5510   317.15227      121.41942     -3380.6472     -2908.9072     -375.52012      11455.102    
      5520   319.76875      121.4165      -3380.5499     -2904.9181     -398.74447      11454.883    
      5530   318.14257      121.40413     -3380.1377     -2906.9247     -365.06552      11454.656    
      5540   312.59329      121.24217     -3374.7388     -2909.78       -225.61013      11454.423    
      5550   305.12826      121.08524     -3369.5081     -2915.653      -61.756542      11454.185    
      5560   298.23555      120.92297     -3364.0992     -2920.4964      99.752207      11453.946    
      5570   294.50258      120.86889     -3362.2962     -2924.2459      186.89553      11453.708    
      5580   294.92143      120.88958     -3362.986      -2924.3127      199.49994      11453.474    
      5590   297.63759      120.92794     -3364.2647     -2921.5513      173.9628       11453.244    
      5600   299.69528      120.97809     -3365.9363     -2920.1623      138.22364      11453.017    
      5610   299.00239      131.02115     -3367.3715     -2922.6281      183.51749      11452.792    
      5620   296.11757      130.98997     -3366.3323     -2925.8798      218.16549      11452.572    
      5630   294.29155      130.96367     -3365.4556     -2927.7192      244.02484      11452.355    
      5640   295.3833       130.99821     -3366.6069     -2927.2467      225.14804      11452.143    
      5650   298.06648      131.04007     -3368.0023     -2924.651       194.24421      11451.936    
      5660   299.65732      131.05679     -3368.5596     -2922.8421      187.11581      11451.732    
      5670   298.66611      131.03494     -3367.8314     -2923.5882      219.91686      11451.531    
      5680   295.71387      131.00642     -3366.8806     -2927.0287      270.47888      11451.335    
      5690   292.88025      130.95655     -3365.2184     -2929.5812      322.31532      11451.144    
      5700   292.11211      130.94296     -3364.7652     -2930.2706      335.19806      11450.959    
      5710   293.94842      130.98798     -3366.266      -2929.04        297.12597      11450.78     
      5720   296.95811      131.04405     -3368.135      -2926.4323      241.72648      11450.608    
      5730   299.0947       131.08319     -3369.4396     -2924.5589      200.62304      11450.439    
      5740   299.28234      131.06067     -3368.6889     -2923.5291      202.04779      11450.275    
      5750   297.90065      131.06664     -3368.8881     -2925.7835      208.19281      11450.114    
      5760   296.56141      131.04984     -3368.328      -2927.2154      223.43585      11449.957    
      5770   296.92158      131.0544      -3368.4798     -2926.8315      214.53054      11449.805    
      5780   299.48088      131.12937     -3370.9789     -2925.5238      158.49733      11449.657    
      5790   303.19007      131.17559     -3372.5195     -2921.5473      103.46119      11449.512    
      5800   306.44476      131.23669     -3374.5565     -2918.7431      51.513684      11449.368    
      5810   308.94052      121.28733     -3376.2444     -2916.7188     -43.940253      11449.226    
      5820   310.67381      121.30827     -3376.9424     -2914.8387     -57.115651      11449.082    
      5830   310.91423      121.33794     -3377.9313     -2915.4699     -56.797244      11448.937    
      5840   309.18724      121.33992     -3377.9973     -2918.1047     -27.792624      11448.792    
      5850   306.08374      121.26982     -3375.6605     -2920.3842      37.715594      11448.645    
      5860   303.35629      121.1986      -3373.2868     -2922.0673      93.630721      11448.5      
      5870   302.21494      121.13241     -3371.0803     -2921.5585      124.52865      11448.356    
      5880   302.30448      121.11208     -3370.4028     -2920.7478      116.81299      11448.215    
      5890   303.01875      121.11488     -3370.4959     -2919.7785      86.539217      11448.075    
      5900   304.33254      121.1837      -3372.7901     -2920.1186      24.007605      11447.938    
      5910   305.95968      121.19522     -3373.1741     -2918.0822     -15.05315       11447.8      
      5920   307.01639      121.23595     -3374.5316     -2917.868      -53.772696      11447.663    
      5930   306.6843       121.26744     -3375.5813     -2919.4116     -69.524088      11447.524    
      5940   305.04684      121.24382     -3374.7942     -2921.0601     -46.199408      11447.384    
      5950   303.26677      121.20973     -3373.6578     -2922.5714     -14.408525      11447.243    
      5960   302.53057      121.1748      -3372.4934     -2922.5021      9.9981538      11447.102    
      5970   303.33148      121.19132     -3373.0441     -2921.8615      0.056405146    11446.96     
      5980   306.19853      121.22534     -3374.1778     -2918.7307     -36.157828      11446.819    
      5990   310.81503      121.299       -3376.6333     -2914.3195     -102.27558      11446.677    
      6000   315.10366      121.36296     -3378.7654     -2910.0726     -161.70649      11446.533    
      6010   317.11759      121.4175      -3380.5833     -2908.8949     -198.64695      11446.386    
      6020   316.66828      121.42376     -3380.7921     -2909.772      -194.61458      11446.236    
      6030   313.96139      121.38527     -3379.5091     -2912.5153     -151.80051      11446.081    
      6040   308.78871      121.3103      -3377.01       -2917.7102     -69.877265      11445.924    
      6050   300.90749      121.17864     -3372.6214     -2925.0443      60.655129      11445.765    
      6060   291.14034      121.02492     -3367.4974     -2934.4482      216.81234      11445.608    
      6070   282.3916       120.91326     -3363.7753     -2943.7392      346.8072       11445.454    
      6080   278.44951      120.83282     -3361.0939     -2946.9214      418.64417      11445.307    
      6090   280.79484      120.86939     -3362.313      -2944.652       384.51168      11445.168    
      6100   287.59415      120.97822     -3365.9407     -2938.1662      275.61991      11445.036    
      6110   294.06017      131.11413     -3370.4709     -2933.0787      205.25351      11444.91     
      6120   298.11943      131.13668     -3371.2227     -2927.7927      140.51514      11444.788    
      6130   300.62593      131.21981     -3373.9936     -2926.8353      68.292999      11444.669    
      6140   302.37999      131.25671     -3375.2236     -2925.4563      25.14955       11444.551    
      6150   302.85085      131.23316     -3374.4386     -2923.9709      23.10806       11444.433    
      6160   300.76042      131.19904     -3373.3014     -2925.9431      55.470334      11444.316    
      6170   295.64752      131.11385     -3370.4618     -2930.7085      140.58372      11444.2      
      6180   288.96223      130.99805     -3366.6015     -2936.7921      254.35769      11444.087    
      6190   283.75603      130.87948     -3362.6494     -2940.5838      353.86137      11443.979    
      6200   283.03848      130.87992     -3362.6641     -2941.6658      362.23859      11443.877    
      6210   287.09597      130.99703     -3366.5678     -2939.5343      276.4415       11443.783    
      6220   293.04137      131.12333     -3370.7777     -2934.9008      167.17842      11443.693    
      6230   296.77072      131.21058     -3373.686      -2932.2621      93.866054      11443.607    
      6240   295.93087      131.18103     -3372.7009     -2932.5261      112.05323      11443.522    
      6250   290.6365       131.10399     -3370.1329     -2937.8332      194.08857      11443.44     
      6260   283.56976      130.98449     -3366.1498     -2944.3613      311.88857      11443.361    
      6270   278.30499      130.91984     -3363.9948     -2950.0372      392.85089      11443.289    
      6280   276.81366      130.90894     -3363.6313     -2951.892       416.42776      11443.224    
      6290   279.15732      130.94112     -3364.704      -2949.4786      385.61425      11443.167    
      6300   284.1522       131.05646     -3368.5486     -2945.8937      298.281        11443.117    
      6310   289.66687      131.18596     -3372.8652     -2942.0077      199.91924      11443.073    
      6320   294.54804      131.24797     -3374.9324     -2936.8146      132.5432       11443.033    
      6330   298.84906      131.34612     -3378.2041     -2933.6888      57.876247      11442.996    
      6340   302.43704      131.40283     -3380.0943     -2930.2421      8.5689732      11442.959    
      6350   304.62875      131.44019     -3381.3398     -2928.2276     -17.472214      11442.923    
      6360   305.02024      131.47397     -3382.4656     -2928.7712     -24.250411      11442.887    
      6370   303.9887       131.43658     -3381.2192     -2929.0591      8.1050252      11442.85     
      6380   302.10006      131.41394     -3380.4647     -2931.1138      39.105759      11442.813    
      6390   299.9033       131.33012     -3377.6708     -2931.5874      90.926844      11442.778    
      6400   298.27417      131.26535     -3375.5117     -2931.8515      125.13037      11442.744    
      6410   299.24361      121.26142     -3375.3806     -2930.2785      48.10031       11442.712    
      6420   304.17368      121.34496     -3378.1653     -2925.73       -40.163843      11442.68     
      6430   310.65634      121.46852     -3382.2841     -2920.2063     -153.62056      11442.648    
      6440   314.68186      121.57153     -3385.7176     -2917.6522     -231.15306      11442.613    
      6450   313.43842      121.56354     -3385.4512     -2919.2353     -212.59157      11442.574    
      6460   307.37796      121.43693     -3381.2308     -2924.0294     -101.60541      11442.531    
      6470   300.15665      121.30916     -3376.9721     -2930.5118      19.47127       11442.486    
      6480   296.26674      121.26927     -3375.6423     -2934.968       72.859119      11442.441    
      6490   297.68169      121.27781     -3375.9268     -2933.1479      53.535854      11442.398    
      6500   302.61342      121.3538      -3378.4599     -2928.3454     -27.932912      11442.355    
      6510   306.79052      121.44386     -3381.4618     -2925.1342     -112.01802      11442.312    
      6520   307.04966      121.47507     -3382.5022     -2925.7891     -141.12581      11442.267    
      6530   303.12949      121.43867     -3381.2889     -2930.4067     -106.72192      11442.22     
      6540   296.84171      121.32015     -3377.3385     -2935.8089     -17.194591      11442.17     
      6550   290.89648      121.18409     -3372.8028     -2940.1164      77.931843      11442.12     
      6560   288.23417      121.17434     -3372.478      -2943.7515      97.227997      11442.071    
      6570   290.12843      121.21127     -3373.709      -2942.165       58.599454      11442.025    
      6580   295.21581      121.33333     -3377.7777     -2938.6665     -39.507482      11441.979    
      6590   300.27406      121.39989     -3379.9963     -2933.3614     -115.95224      11441.932    
      6600   303.37803      121.4075      -3380.25       -2928.9982     -151.23164      11441.884    
      6610   304.71157      121.4148      -3380.4935     -2927.2581     -169.0596       11441.833    
      6620   305.29899      121.43235     -3381.0784     -2926.9693     -180.25677      11441.778    
      6630   304.92522      121.40102     -3380.0341     -2926.4809     -160.92726      11441.72     
      6640   302.57954      121.34986     -3378.3287     -2928.2646     -114.39663      11441.659    
      6650   298.29931      121.24019     -3374.6731     -2930.9755     -30.144248      11441.596    
      6660   294.52809      121.19092     -3373.0308     -2934.9426      23.382469      11441.533    
      6670   293.90747      121.24581     -3374.8604     -2937.6953      8.1781081      11441.469    
      6680   296.28639      121.29961     -3376.6538     -2935.9503     -33.062847      11441.406    
      6690   299.07347      121.32137     -3377.3789     -2932.5298     -65.634448      11441.343    
      6700   300.01112      121.36895     -3378.9651     -2932.7213     -89.899271      11441.277    
      6710   298.50329      121.28156     -3376.0522     -2932.0511     -37.152315      11441.211    
      6720   295.19797      121.28417     -3376.1389     -2937.0543     -1.1609731      11441.143    
      6730   292.08417      121.27045     -3375.6817     -2941.2286      36.054777      11441.076    
      6740   291.84249      121.24147     -3374.7155     -2940.6219      47.762767      11441.009    
      6750   295.29793      121.27133     -3375.7111     -2936.4778     -0.28349192     11440.943    
      6760   300.02051      121.37941     -3379.3135     -2933.0558     -93.636378      11440.877    
      6770   303.11801      121.42271     -3380.7571     -2929.892      -151.38894      11440.809    
      6780   304.0335       121.43062     -3381.0205     -2928.7937     -176.50922      11440.739    
      6790   304.27593      121.44217     -3381.4056     -2928.8182     -194.21449      11440.665    
      6800   305.31249      121.45627     -3381.8758     -2927.7466     -213.95359      11440.587    
      6810   306.6037       121.51053     -3383.6844     -2927.6347     -243.17709      11440.505    
      6820   306.00555      121.51496     -3383.8321     -2928.6721     -230.62137      11440.419    
      6830   302.21115      121.48924     -3382.9748     -2933.4586     -174.365        11440.328    
      6840   296.25558      121.36922     -3378.9739     -2938.3162     -62.478091      11440.234    
      6850   291.38366      121.29636     -3376.5453     -2943.1341      17.582098      11440.139    
      6860   290.78127      121.23348     -3374.4493     -2941.9342      49.867061      11440.044    
      6870   294.47902      121.27976     -3375.9919     -2937.9767     -6.46955        11439.949    
      6880   299.80167      121.31995     -3377.3316     -2931.3993     -83.402781      11439.855    
      6890   303.7968       121.41121     -3380.3737     -2928.499      -172.85795      11439.759    
      6900   305.31191      121.43416     -3381.1387     -2927.0104     -213.84769      11439.66     
      6910   305.5493       121.46163     -3382.0543     -2927.5729     -239.75958      11439.556    
      6920   306.19735      121.52423     -3384.1409     -2928.6955     -274.63665      11439.448    
      6930   307.40005      121.57325     -3385.7749     -2928.5406     -300.63492      11439.335    
      6940   307.98164      121.57951     -3385.9837     -2927.8843     -298.10147      11439.216    
      6950   306.69299      121.59938     -3386.6461     -2930.4635     -279.54763      11439.092    
      6960   303.10128      121.57371     -3385.7905     -2934.9503     -222.27034      11438.962    
      6970   298.49821      121.51396     -3383.7985     -2939.8051     -143.84194      11438.828    
      6980   294.41809      121.42019     -3380.6729     -2942.7483     -60.676554      11438.691    
      6990   291.34573      121.33283     -3377.7611     -2944.4064      4.449184       11438.553    
      7000   289.25491      121.34994     -3378.3315     -2948.0867      14.926469      11438.415    
      7010   287.86346      121.32832     -3377.6105     -2949.4354      28.633035      11438.277    
      7020   287.13309      121.27911     -3375.9702     -2948.8815      42.486564      11438.139    
      7030   288.01341      121.29052     -3376.3508     -2947.9526      16.437646      11438.002    
      7040   291.5025       121.37272     -3379.0908     -2945.5029     -61.511782      11437.866    
      7050   297.03659      121.48011     -3382.6703     -2940.8509     -167.95923      11437.728    
      7060   302.28758      121.52733     -3384.2444     -2934.6146     -250.6679       11437.586    
      7070   305.2679       121.58496     -3386.1653     -2932.1024     -319.3649       11437.441    
      7080   305.70726      121.58871     -3386.2904     -2931.574      -346.68704      11437.289    
      7090   304.95425      121.57881     -3385.9603     -2932.364      -358.70805      11437.13     
      7100   304.71767      121.62169     -3387.3898     -2934.1453     -392.44337      11436.964    
      7110   305.06845      121.62792     -3387.5974     -2933.8312     -411.13004      11436.791    
      7120   304.20402      121.6477      -3388.2566     -2935.7762     -416.63635      11436.61     
      7130   301.38426      121.5926      -3386.42       -2938.1337     -367.69741      11436.42     
      7140   298.28796      121.51277     -3383.7589     -2940.0782     -294.98296      11436.224    
      7150   295.39513      121.45249     -3381.7497     -2942.3719     -222.23408      11436.022    
      7160   291.79241      121.42275     -3380.7585     -2946.7394     -152.20758      11435.816    
      7170   287.69671      121.34844     -3378.2812     -2950.3542     -66.523164      11435.607    
      7180   285.82285      121.29844     -3376.6147     -2951.4748     -17.573714      11435.396    
      7190   288.11544      121.35128     -3378.376      -2949.8261     -50.723365      11435.185    
      7200   292.64668      121.41693     -3380.5644     -2945.2747     -112.04057      11434.972    
      7210   295.97839      121.48467     -3382.8225     -2942.577      -166.91407      11434.757    
      7220   296.83748      121.51178     -3383.726      -2942.2027     -184.80018      11434.539    
      7230   295.79081      121.50437     -3383.4788     -2943.5124     -171.65854      11434.318    
      7240   294.09856      121.49312     -3383.104      -2945.6546     -150.17582      11434.093    
      7250   292.65978      121.443       -3381.4333     -2946.1241     -115.56837      11433.865    
      7260   292.03967      121.46689     -3382.2298     -2947.8429     -113.83635      11433.635    
      7270   292.01206      121.47774     -3382.5913     -2948.2455     -109.52945      11433.402    
      7280   291.73965      121.4842      -3382.8066     -2948.8659     -96.150011      11433.167    
      7290   289.9235       121.41145     -3380.3816     -2949.1424     -35.248932      11432.931    
      7300   286.79651      121.37806     -3379.2685     -2952.6804      22.420609      11432.693    
      7310   284.63301      121.33434     -3377.8113     -2954.4412      71.920889      11432.456    
      7320   285.65382      121.32838     -3377.6127     -2952.7243      72.363604      11432.22     
      7330   289.6388       121.37988     -3379.3294     -2948.5137      17.771669      11431.985    
      7340   294.07761      121.4041      -3380.1367     -2942.7186     -36.228277      11431.75     
      7350   296.39522      121.44525     -3381.5085     -2940.643      -80.099062      11431.515    
      7360   295.48386      121.43208     -3381.0692     -2941.5594     -72.884818      11431.278    
      7370   292.01645      121.4121      -3380.4033     -2946.0509     -37.24961       11431.039    
      7380   288.21765      121.37035     -3379.0117     -2950.3098      11.562863      11430.799    
      7390   286.90415      121.36554     -3378.8514     -2952.1032      25.140687      11430.56     
      7400   289.27427      121.42719     -3380.9063     -2950.6327     -20.021581      11430.321    
      7410   293.92642      121.49459     -3383.1529     -2945.9597     -89.668199      11430.081    
      7420   298.68657      121.60747     -3386.9157     -2942.6421     -180.46996      11429.839    
      7430   302.59107      121.68133     -3389.3777     -2939.2964     -248.25873      11429.594    
      7440   304.64135      121.70594     -3390.198      -2937.0671     -275.22834      11429.344    
      7450   303.41037      121.67908     -3389.3025     -2938.0026     -248.01501      11429.089    
      7460   299.05406      121.61142     -3387.0474     -2942.2272     -174.9128       11428.83     
      7470   293.41354      121.49684     -3383.2282     -2946.7978     -73.231885      11428.567    
      7480   288.66542      121.38259     -3379.4197     -2950.0518      15.369713      11428.302    
      7490   286.56307      121.32398     -3377.4661     -2951.2252      51.797168      11428.037    
      7500   287.97762      121.36829     -3378.9429     -2950.598       10.809939      11427.773    
      7510   292.29126      121.46105     -3382.035      -2947.2739     -77.279832      11427.509    
      7520   297.25778      121.56572     -3385.5239     -2943.3755     -174.82198      11427.243    
      7530   300.54755      121.60857     -3386.9523     -2939.9106     -228.66518      11426.974    
      7540   301.0805       121.63707     -3387.9022     -2940.0678     -246.05743      11426.701    
      7550   299.79685      121.62086     -3387.3619     -2941.4368     -221.83457      11426.422    
[...]
      8180   287.62576      121.58319     -3386.1062     -2958.2846      125.11904      11406.732    
      8190   286.70023      121.56803     -3385.6009     -2959.156       139.87645      11406.398    
      8200   287.37307      121.62511     -3387.5038     -2960.0582      114.37423      11406.066    
      8210   287.91598      121.65226     -3388.4087     -2960.1555      104.4427       11405.736    
      8220   287.33726      121.61176     -3387.0588     -2959.6664      133.20619      11405.408    
      8230   285.41368      121.60202     -3386.734      -2962.2028      163.89034      11405.082    
      8240   282.60998      121.53297     -3384.4323     -2964.0713      224.60049      11404.759    
      8250   280.34214      121.48539     -3382.8462     -2965.8585      267.87508      11404.44     
      8260   280.89957      121.46904     -3382.3014     -2964.4846      268.53571      11404.126    
      8270   285.70366      121.57683     -3385.8944     -2960.9318      181.07049      11403.817    
      8280   293.35767      121.67316     -3389.1055     -2952.7582      73.69177       11403.51     
      8290   300.14952      121.82104     -3394.0347     -2947.585      -39.303436      11403.205    
      8300   302.37927      121.86272     -3395.4239     -2945.6576     -62.201782      11402.899    
      8310   299.25947      121.81918     -3393.9726     -2948.8468      4.3888587      11402.592    
      8320   293.07083      121.71614     -3390.5379     -2954.6173      125.73947      11402.285    
      8330   287.27123      121.63991     -3387.9968     -2960.7027      232.97307      11401.98     
      8340   283.77354      121.57767     -3385.9224     -2963.8308      306.98984      11401.679    
      8350   282.791        121.56485     -3385.4951     -2964.8649      326.56695      11401.383    
      8360   284.01892      121.56825     -3385.6082     -2963.1516      305.44932      11401.094    
      8370   287.39011      121.64591     -3388.197      -2960.726       228.8451       11400.81     
      8380   291.78935      121.72646     -3390.8821     -2956.8675      143.35677      11400.53     
      8390   294.65514      121.78329     -3392.7764     -2954.4992      88.605903      11400.253    
      8400   293.63858      121.78156     -3392.7187     -2955.9535      99.582215      11399.977    
      8410   289.07609      121.66426     -3388.8086     -2958.8298      193.2045       11399.704    
      8420   283.87956      121.60654     -3386.8846     -2964.6352      271.71257      11399.433    
      8430   281.11358      121.58093     -3386.0311     -2967.896       311.9558       11399.168    
      8440   281.71294      121.5727      -3385.7568     -2966.7302      305.19626      11398.908    
      8450   285.03387      121.62954     -3387.6512     -2963.685       237.80424      11398.653    
      8460   289.6986       121.71456     -3390.4854     -2959.5807      141.52153      11398.403    
      8470   293.53763      121.73339     -3391.113      -2954.498       77.582386      11398.156    
      8480   294.94031      121.79489     -3393.1631     -2954.4618      22.742123      11397.91     
      8490   294.34282      121.79258     -3393.0859     -2955.2733      15.567261      11397.664    
      8500   294.05625      121.76431     -3392.1436     -2954.7572      20.443595      11397.418    
      8510   296.39109      121.79925     -3393.3082     -2952.449      -17.332758      11397.173    
      8520   301.12585      121.8738      -3395.7934     -2947.8915     -87.252662      11396.927    
      8530   305.76643      121.95861     -3398.6204     -2943.816      -154.29397      11396.679    
      8540   307.67901      122.00182     -3400.0607     -2942.4115     -173.00923      11396.428    
      8550   305.29789      121.94347     -3398.1157     -2944.0082     -107.45336      11396.173    
      8560   298.80602      121.81062     -3393.6872     -2949.2359      26.443506      11395.917    
      8570   290.81904      121.67447     -3389.1488     -2956.5775      174.05983      11395.66     
      8580   285.13517      121.59188     -3386.3961     -2962.2791      277.73017      11395.407    
      8590   283.95263      121.56314     -3385.4379     -2963.0799      316.16579      11395.159    
      8600   286.91542      121.62114     -3387.3713     -2960.6063      279.69878      11394.916    
      8610   292.00134      121.74914     -3391.6381     -2957.3083      196.0476       11394.678    
      8620   296.4874       121.81901     -3393.9671     -2952.9645      141.21604      11394.444    
      8630   298.25957      121.88313     -3396.1043     -2952.4658      115.73649      11394.213    
      8640   296.62412      121.83417     -3394.4725     -2953.2666      167.27364      11393.983    
      8650   292.30542      121.76816     -3392.2721     -2957.4899      250.49017      11393.757    
      8660   287.02147      121.7241      -3390.8033     -2963.8806      329.7328       11393.535    
      8670   282.95317      121.6389      -3387.9634     -2967.092       403.64665      11393.32     
      8680   281.75462      121.61354     -3387.118      -2968.0294      416.60265      11393.112    
      8690   283.33027      121.61464     -3387.1546     -2965.7223      382.34499      11392.911    
      8700   286.89054      121.65556     -3388.5188     -2961.7908      307.95979      11392.718    
      8710   291.81775      121.73705     -3391.2349     -2957.1781      206.58611      11392.53     
      8720   296.7091       121.82183     -3394.0609     -2952.7286      111.18645      11392.346    
      8730   299.06436      121.88037     -3396.0123     -2951.1767      58.954463      11392.165    
      8740   297.01088      121.80766     -3393.5888     -2951.8076      106.07974      11391.984    
      8750   291.27367      121.66832     -3388.9441     -2955.6966      218.60799      11391.805    
      8760   284.70199      121.54952     -3384.9841     -2961.5115      334.07316      11391.631    
      8770   280.10402      121.43874     -3381.2913     -2964.6578      428.56582      11391.462    
      8780   278.4924       121.42143     -3380.7143     -2966.478       457.81995      11391.302    
      8790   279.11608      121.4207      -3380.6901     -2965.5261      456.00269      11391.15     
      8800   280.71857      121.44153     -3381.3845     -2963.8369      432.67805      11391.006    
      8810   282.4696       121.46503     -3382.1676     -2962.0155      405.27377      11390.871    
      8820   284.08661      121.53337     -3384.4457     -2961.8884      362.62294      11390.743    
      8830   285.67231      121.60898     -3386.9658     -2962.0499      319.45301      11390.622    
      8840   287.29361      121.65358     -3388.4528     -2961.1253      289.66947      11390.507    
      8850   288.70104      121.62728     -3387.5761     -2958.1552      289.74198      11390.398    
      8860   290.05931      121.69079     -3389.6929     -2958.2517      255.93393      11390.294    
      8870   291.85698      121.71878     -3390.626      -2956.5108      232.11537      11390.194    
      8880   293.72065      121.72425     -3390.8083     -2953.9211      215.80846      11390.099    
      8890   294.72544      121.69837     -3389.9457     -2951.5639      217.94216      11390.009    
      8900   294.57124      121.683       -3389.4333     -2951.2809      225.02019      11389.922    
      8910   294.10841      121.72121     -3390.7072     -2953.2432      212.1651       11389.839    
      8920   294.82767      121.76496     -3392.1654     -2953.6316      183.38092      11389.761    
      8930   297.80973      121.86953     -3395.6511     -2952.6817      109.41453      11389.686    
      8940   302.48124      121.96521     -3398.8404     -2948.9224      24.242316      11389.613    
      8950   306.72684      122.02568     -3400.856      -2944.6231     -39.773191      11389.54     
      8960   307.77606      122.05178     -3401.7262     -2943.9326     -58.007465      11389.467    
      8970   304.53078      122.01962     -3400.6539     -2947.6874     -10.444807      11389.393    
      8980   297.87607      121.90975     -3396.9918     -2953.9238      98.257207      11389.318    
      8990   290.70023      121.80251     -3393.4171     -2961.0225      207.79357      11389.246    
      9000   286.48154      121.71337     -3390.4457     -2964.3261      278.11869      11389.177    
      9010   287.12819      121.7044      -3390.1468     -2963.0654      269.64207      11389.114    
      9020   291.21414      121.813       -3393.7666     -2960.6077      184.90274      11389.055    
      9030   294.83895      121.85003     -3395.001      -2956.4504      134.39527      11389        
      9040   294.91083      121.84235     -3394.7449     -2956.0874      135.71235      11388.948    
      9050   292.40071      121.77989     -3392.663      -2957.7392      185.36766      11388.898    
      9060   290.98748      121.76493     -3392.1642     -2959.3424      212.14784      11388.852    
      9070   292.53557      121.81939     -3393.9795     -2958.855       189.8806       11388.81     
      9080   295.04402      121.84379     -3394.7931     -2955.9375      172.11182      11388.771    
      9090   295.44042      121.82196     -3394.0654     -2954.6201      190.1041       11388.736    
      9100   293.17533      121.7519      -3391.73       -2955.6539      247.75751      11388.704    
      9110   290.5975       121.66436     -3388.8121     -2956.5704      314.2171       11388.677    
      9120   289.4472       121.66178     -3388.7259     -2958.1952      336.19872      11388.656    
      9130   289.0333       121.65668     -3388.5559     -2958.6408      353.06517      11388.641    
      9140   287.71274      121.67061     -3389.0204     -2961.0695      370.92337      11388.633    
      9150   284.90713      121.60235     -3386.7452     -2962.9674      430.74762      11388.633    
      9160   282.34798      121.60556     -3386.8521     -2966.8809      456.42189      11388.64     
      9170   282.63578      121.55761     -3385.2538     -2964.8545      470.35868      11388.656    
      9180   286.52676      121.59063     -3386.3545     -2960.1676      417.84206      11388.681    
      9190   291.59483      121.6685      -3388.95       -2955.2248      334.87968      11388.714    
      9200   295.61092      121.7548      -3391.8265     -2952.1277      255.99468      11388.754    
      9210   298.49092      121.78488     -3392.8293     -2948.8467      209.32485      11388.798    
      9220   300.84973      121.80558     -3393.5193     -2946.0281      175.43033      11388.847    
      9230   302.24159      121.85603     -3395.2009     -2945.6394      141.58553      11388.899    
      9240   302.11516      121.87101     -3395.7002     -2946.3268      137.62783      11388.954    
      9250   300.15881      121.84891     -3394.9635     -2948.5         167.17357      11389.012    
      9260   296.4959       121.8077      -3393.5901     -2952.5749      221.02435      11389.074    
      9270   292.25686      121.74023     -3391.3409     -2956.6309      290.1012       11389.139    
      9280   289.36258      121.72073     -3390.6911     -2960.2862      327.36254      11389.211    
      9290   289.66461      121.75118     -3391.706      -2960.8518      315.26548      11389.288    
      9300   293.18172      121.78849     -3392.9495     -2956.8639      271.11661      11389.372    
      9310   297.36165      121.84951     -3394.9836     -2952.6807      211.55095      11389.461    
      9320   299.65247      121.8565      -3395.2165     -2949.5062      189.12127      11389.554    
      9330   299.70601      121.85042     -3395.014      -2949.224       192.89822      11389.651    
      9340   298.52006      121.84951     -3394.9835     -2950.9576      209.1977       11389.752    
      9350   296.69962      121.76998     -3392.3327     -2951.0145      265.14773      11389.858    
      9360   294.712        121.72289     -3390.7629     -2952.4011      311.98275      11389.968    
      9370   293.3905       121.66013     -3388.671      -2952.2748      360.74829      11390.085    
      9380   292.55295      121.65742     -3388.5807     -2953.4304      382.89857      11390.208    
      9390   291.26637      121.66619     -3388.873      -2955.6363      400.88651      11390.34     
      9400   290.12298      121.61437     -3387.1458     -2955.6098      434.52145      11390.479    
      9410   290.89403      121.65625     -3388.5418     -2955.8589      410.99999      11390.626    
      9420   293.88902      121.69883     -3389.9611     -2952.8234      364.51269      11390.781    
      9430   297.44473      121.76723     -3392.241      -2949.8145      300.68732      11390.944    
      9440   299.37125      121.79417     -3393.139      -2947.847       264.87676      11391.113    
      9450   298.66657      121.76942     -3392.314      -2948.0701      270.76726      11391.287    
      9460   296.0215       121.68584     -3389.528      -2949.2185      317.88973      11391.467    
      9470   292.76581      121.6622      -3388.7401     -2953.2732      350.4933       11391.653    
      9480   289.83454      121.60489     -3386.8297     -2955.7228      395.86936      11391.846    
      9490   287.65901      121.55736     -3385.2453     -2957.3743      430.32986      11392.047    
      9500   286.97271      121.55245     -3385.0816     -2958.2315      432.93026      11392.256    
      9510   288.70571      121.61878     -3387.2927     -2957.8649      384.78387      11392.474    
      9520   292.96538      121.73062     -3391.0208     -2955.257       294.94385      11392.699    
      9530   298.54798      121.82685     -3394.2284     -2950.1609      199.63184      11392.93     
      9540   303.06863      121.90766     -3396.9221     -2946.1305      122.47012      11393.166    
      9550   304.13549      121.87845     -3395.9483     -2943.5698      123.55086      11393.404    
      9560   300.88156      121.78271     -3392.7571     -2945.2185      194.5302       11393.645    
      9570   294.56706      121.63557     -3387.8523     -2949.7062      316.62763      11393.891    
      9580   287.99145      121.52333     -3384.1109     -2955.7454      428.47014      11394.143    
      9590   284.44476      121.47375     -3382.4582     -2959.3682      487.9003       11394.403    
      9600   285.47287      121.50293     -3383.431      -2958.8117      474.53174      11394.673    
      9610   289.33418      121.61476     -3387.1585     -2956.7959      402.77413      11394.952    
      9620   292.63756      121.64525     -3388.1749     -2952.8987      365.72373      11395.239    
      9630   293.5349       121.64788     -3388.2626     -2951.6516      359.11347      11395.534    
      9640   292.95177      121.62753     -3387.5843     -2951.8408      374.41019      11395.836    
      9650   292.77707      121.60267     -3386.7556     -2951.2719      388.33912      11396.146    
      9660   294.01291      121.63479     -3387.8262     -2950.5043      368.92315      11396.464    
      9670   296.12495      121.66687     -3388.8958     -2948.4323      343.06796      11396.789    
      9680   297.63515      121.71162     -3390.3872     -2947.6775      315.36841      11397.121    
      9690   297.81605      121.69274     -3389.7579     -2946.7791      320.35701      11397.46     
      9700   297.04858      121.67244     -3389.0814     -2947.2442      330.53648      11397.805    
      9710   296.65761      121.62346     -3387.4488     -2946.1931      344.47152      11398.158    
      9720   297.84007      121.6423      -3388.0765     -2945.062       314.74952      11398.517    
      9730   300.49156      121.64026     -3388.0085     -2941.0501      277.22596      11398.883    
      9740   303.67107      121.68721     -3389.5736     -2937.8859      215.0155       11399.254    
      9750   306.59343      121.70958     -3390.3193     -2934.2848      167.50308      11399.63     
      9760   308.29849      121.73361     -3391.1204     -2932.5498      135.12867      11400.01     
      9770   308.3439       121.7197      -3390.6565     -2932.0183      138.4982       11400.394    
      9780   307.12162      121.66311     -3388.7702     -2931.9501      176.48059      11400.78     
      9790   305.33293      121.60815     -3386.9385     -2932.7789      225.41144      11401.171    
      9800   302.84245      121.55641     -3385.2136     -2934.7584      284.18266      11401.566    
      9810   298.99363      121.49985     -3383.3284     -2938.598       356.36892      11401.968    
      9820   295.09401      121.4307      -3381.0232     -2942.0933      428.55351      11402.376    
      9830   293.89111      121.40636     -3380.2121     -2943.0713      453.35208      11402.794    
      9840   296.82058      121.49612     -3383.2042     -2941.706       393.70048      11403.221    
      9850   302.57008      121.56968     -3385.656      -2935.6059      315.27948      11403.655    
      9860   307.72876      121.66409     -3388.8029     -2931.0797      237.46725      11404.097    
      9870   309.55091      121.70193     -3390.0642     -2929.6307      217.286        11404.543    
      9880   307.17889      121.65601     -3388.5338     -2931.6284      270.48406      11404.995    
      9890   301.88643      121.59288     -3386.4293     -2937.3962      354.25148      11405.453    
      9900   296.86242      121.48755     -3382.9185     -2941.3581      442.13511      11405.918    
      9910   295.88613      121.48314     -3382.7714     -2942.6632      440.24892      11406.392    
      9920   300.80389      121.55362     -3385.1207     -2937.6977      342.42999      11406.875    
      9930   309.55017      121.68938     -3389.646      -2929.2136      175.60696      11407.365    
      9940   317.68485      121.80618     -3393.5393     -2921.0072      18.996376      11407.859    
      9950   321.74545      121.84516     -3394.8387     -2916.2667     -63.586485      11408.354    
      9960   320.19971      121.77866     -3392.6219     -2916.3491     -42.118121      11408.85     
      9970   313.9699       121.67887     -3389.2956     -2922.2891      48.098667      11409.345    
      9980   305.9463       121.52727     -3384.2423     -2929.1704      183.54199      11409.842    
      9990   299.30616      121.42478     -3380.8259     -2935.6306      290.03806      11410.343    
     10000   295.85727      121.35655     -3378.5516     -2938.4863      351.88783      11410.85     
Loop time of 2.05839 on 1 procs for 10000 steps with 500 atoms

Performance: 419.746 ns/day, 0.057 hours/ns, 4858.174 timesteps/s, 2.429 Matom-step/s
99.4% CPU use with 1 MPI tasks x 1 OpenMP threads

MPI task timing breakdown:
Section |  min time  |  avg time  |  max time  |%varavg| %total
---------------------------------------------------------------
Pair    | 1.694      | 1.694      | 1.694      |   0.0 | 82.30
Bond    | 0.00053873 | 0.00053873 | 0.00053873 |   0.0 |  0.03
Neigh   | 0.021401   | 0.021401   | 0.021401   |   0.0 |  1.04
Comm    | 0.054158   | 0.054158   | 0.054158   |   0.0 |  2.63
Output  | 0.0060684  | 0.0060684  | 0.0060684  |   0.0 |  0.29
Modify  | 0.16033    | 0.16033    | 0.16033    |   0.0 |  7.79
Other   |            | 0.1219     |            |       |  5.92

Nlocal:            500 ave         500 max         500 min
Histogram: 1 0 0 0 0 0 0 0 0 0
Nghost:           1661 ave        1661 max        1661 min
Histogram: 1 0 0 0 0 0 0 0 0 0
Neighs:          14931 ave       14931 max       14931 min
Histogram: 1 0 0 0 0 0 0 0 0 0

Total # of neighbors = 14931
Ave neighs/atom = 29.862
Ave special neighs/atom = 0
Neighbor list builds = 30
Dangerous builds = 0

#write_data      ${rep}/lj-out.data
Total wall time: 0:00:02
