print           "This is replica: ${rep}"
This is replica: 0

read_data       ${rep}/lj.data
read_data       0/lj.data
Reading data file ...
  orthogonal box = (1.2703357 1.2703357 1.2703357) to (23.729664 23.729664 23.729664)
  1 by 1 by 1 MPI processor grid
  reading atoms ...
  500 atoms
  reading velocities ...
  500 velocities
Finding 1-2 1-3 1-4 neighbors ...
  special bond factors lj:    0        0        0       
  special bond factors coul:  0        0        0       
     0 = max # of 1-2 neighbors
     0 = max # of 1-3 neighbors
     0 = max # of 1-4 neighbors
     1 = max # of special neighbors
  special bonds CPU = 0.000 seconds
  read_data CPU = 0.013 seconds

#dump            dump all xyz 1000 ${rep}/dump.xyz

fix             fxnpt all npt temp ${T0} ${T0} 1000.0 iso ${press} ${press} 10000.0
fix             fxnpt all npt temp 300 ${T0} 1000.0 iso ${press} ${press} 10000.0
fix             fxnpt all npt temp 300 300 1000.0 iso ${press} ${press} 10000.0
fix             fxnpt all npt temp 300 300 1000.0 iso 0 ${press} 10000.0
fix             fxnpt all npt temp 300 300 1000.0 iso 0 0 10000.0
fix             fxgREM all grem ${lambda} -.03 -30000 fxnpt
fix             fxgREM all grem 900 -.03 -30000 fxnpt

thermo          10
thermo_style    custom step temp f_fxgREM pe etotal press vol
thermo_modify   press fxgREM_press
timestep        1.0

temper/grem     10000 100 ${lambda} fxgREM fxnpt 10294 98392 #${walker}
temper/grem     10000 100 900 fxgREM fxnpt 10294 98392 

CITE-CITE-CITE-CITE-CITE-CITE-CITE-CITE-CITE-CITE-CITE-CITE-CITE

Your simulation uses code contributions which should be cited:

- Type Label Framework: https://doi.org/10.1021/acs.jpcb.3c08419

@Article{Gissinger24,
 author = {Jacob R. Gissinger, Ilia Nikiforov, Yaser Afshar, Brendon Waters, Moon-ki Choi, Daniel S. Karls, Alexander Stukowski, Wonpil Im, Hendrik Heinz, Axel Kohlmeyer, and Ellad B. Tadmor},
 title = {Type Label Framework for Bonded Force Fields in LAMMPS},
 journal = {J. Phys. Chem. B},
 year =    2024,
 volume =  128,
 number =  13,
 pages =   {3282--3297}
}

CITE-CITE-CITE-CITE-CITE-CITE-CITE-CITE-CITE-CITE-CITE-CITE-CITE

Generated 0 of 0 mixed pair_coeff terms from geometric mixing rule
Neighbor list info ...
  update: every = 1 steps, delay = 0 steps, check = yes
  max neighbors/atom: 2000, page size: 100000
  master list distance cutoff = 7
  ghost atom cutoff = 7
  binsize = 3.5, bins = 7 7 7
  1 neighbor lists, perpetual/occasional/extra = 1 0 0
  (1) pair lj/cut, perpetual
      attributes: half, newton on
      pair build: half/bin/newton
      stencil: half/bin/3d
      bin: standard
Per MPI rank memory allocation (min/avg/max) = 6.092 | 6.092 | 6.092 Mbytes
   Step          Temp         f_fxgREM        PotEng         TotEng         Press          Volume    
         0   299.42262      102.507       -3416.9        -2971.5315      134.01052      11328.967    
        10   305.01315      102.57259     -3419.0863     -2965.4023      52.104014      11328.968    
        20   309.92197      102.64755     -3421.585      -2960.5996     -26.370502      11328.97     
        30   311.99962      102.71885     -3423.9618     -2959.886      -76.248024      11328.972    
        40   310.18839      102.69518     -3423.1727     -2961.791      -52.274296      11328.972    
        50   305.15121      102.6302      -3421.0067     -2967.1174      16.259186      11328.972    
        60   299.39836      102.5938      -3419.7932     -2974.4609      80.723752      11328.972    
        70   295.2947       102.55104     -3418.3682     -2979.1397      134.53826      11328.974    
        80   293.51832      102.50438     -3416.8126     -2980.2263      170.69436      11328.978    
        90   293.4313       102.51498     -3417.1659     -2980.7091      170.93348      11328.985    
       100   294.63942      102.5177      -3417.2566     -2979.0028      164.62118      11328.996    
       110   297.25348      102.56555     -3418.8518     -2976.7098      131.78642      11329.009    
       120   300.50389      102.60344     -3420.1147     -2973.138       98.059107      11329.026    
       130   302.95329      102.6409      -3421.3632     -2970.7432      69.184127      11329.044    
       140   304.05934      102.70523     -3423.5076     -2971.2424      38.483323      11329.063    
       150   304.21874      102.71956     -3423.9853     -2971.483       33.120795      11329.084    
       160   304.38373      102.70642     -3423.5475     -2970.7998      39.863602      11329.105    
       170   304.80119      102.70106     -3423.3687     -2970.0001      43.81458       11329.127    
       180   305.13986      102.71028     -3423.6759     -2969.8035      46.012568      11329.149    
       190   304.94581      102.68774     -3422.9246     -2969.3408      69.45531       11329.173    
       200   302.86944      102.65221     -3421.7405     -2971.2451      116.36532      11329.198    
       210   297.66203      102.5571      -3418.57       -2975.8203      210.54752      11329.225    
       220   290.84975      102.4888      -3416.2934     -2983.6764      300.41368      11329.257    
       230   286.66939      102.40548     -3413.5161     -2987.1171      365.47305      11329.294    
       240   288.43125      102.42847     -3414.2822     -2985.2625      333.79678      11329.337    
       250   295.98317      102.53577     -3417.8592     -2977.6066      218.32583      11329.387    
       260   305.50944      102.66939     -3422.3129     -2967.8907      75.647611      11329.442    
       270   311.52784      102.76932     -3425.6438     -2962.2698     -26.082565      11329.497    
       280   311.04809      102.75024     -3425.0079     -2962.3475     -28.107499      11329.553    
       290   305.15089      102.64836     -3421.6118     -2967.723       47.660878      11329.608    
       300   297.43414      102.53066     -3417.6888     -2975.278       143.59809      11329.664    
       310   292.00959      102.45993     -3415.3311     -2980.989       202.74301      11329.723    
       320   291.38924      102.45451     -3415.1502     -2981.7308      200.97374      11329.786    
       330   294.86536      102.51948     -3417.3161     -2978.7262      144.55999      11329.852    
       340   299.07208      102.62716     -3420.9055     -2976.0584      71.399873      11329.922    
       350   301.19576      102.64389     -3421.463      -2973.4572      53.061594      11329.992    
       360   301.40019      102.64704     -3421.5679     -2973.258       57.596113      11330.064    
       370   301.60245      102.63438     -3421.146      -2972.5352      71.309001      11330.137    
       380   302.37612      102.66603     -3422.201      -2972.4395      65.746577      11330.211    
       390   302.18626      102.66324     -3422.1079     -2972.6287      79.626784      11330.286    
       400   300.14684      102.64399     -3421.4662     -2975.0205      108.06018      11330.364    
       410   297.66989      102.55498     -3418.4995     -2975.7381      159.41435      11330.443    
       420   296.71021      102.52862     -3417.6205     -2976.2866      170.07252      11330.525    
       430   297.60326      102.52266     -3417.4219     -2974.7596      154.76462      11330.611    
       440   299.4787       102.57499     -3419.1663     -2973.7144      108.71226      11330.699    
       450   301.07361      102.60728     -3420.2425     -2972.4184      73.323058      11330.79     
       460   302.09473      102.59526     -3419.8419     -2970.4989      61.295735      11330.882    
       470   302.71034      102.61652     -3420.5506     -2970.2919      41.528271      11330.975    
       480   302.81247      102.63001     -3421.0003     -2970.5897      29.586491      11331.069    
       490   302.14676      102.61603     -3420.5343     -2971.1139      34.650694      11331.164    
       500   300.28279      102.59162     -3419.7206     -2973.0728      51.994291      11331.26     
       510   297.96527      102.55635     -3418.5449     -2975.3442      76.824586      11331.356    
       520   296.76624      102.53423     -3417.8076     -2976.3903      89.446968      11331.454    
       530   296.69969      102.5175      -3417.2499     -2975.9316      92.436227      11331.554    
       540   296.45494      102.50598     -3416.866      -2975.9117      92.560177      11331.656    
       550   296.25677      102.49909     -3416.6362     -2975.9767      88.125082      11331.759    
       560   297.43134      102.48152     -3416.0508     -2973.6442      78.021994      11331.865    
       570   299.8914       102.52308     -3417.4359     -2971.3701      40.329164      11331.971    
       580   301.70793      102.55476     -3418.4919     -2969.7242      19.028336      11332.079    
       590   301.08089      102.56498     -3418.8327     -2970.9977      31.485112      11332.187    
       600   297.98396      102.48227     -3416.0757     -2972.8472      102.76719      11332.296    
       610   293.64099      102.45556     -3415.1853     -2978.4166      160.27581      11332.407    
       620   290.00173      102.38831     -3412.9437     -2981.5881      218.82682      11332.521    
       630   289.95052      102.41905     -3413.9682     -2982.6888      200.12678      11332.639    
       640   295.74767      102.4877      -3416.2566     -2976.3543      112.7184       11332.761    
       650   306.46326      102.65902     -3421.9674     -2966.1265     -54.496817      11332.884    
       660   317.10201      102.85715     -3428.5716     -2956.9063     -227.34187      11333.007    
       670   322.2384       102.92001     -3430.667      -2951.3618     -299.3276       11333.126    
       680   320.57043      102.934       -3431.1332     -2954.309      -291.04694      11333.24     
       690   314.82115      102.83427     -3427.8089     -2959.5363     -197.58134      11333.348    
       700   308.88681      102.7122      -3423.7399     -2964.2942     -84.909391      11333.453    
       710   304.98647      102.66463     -3422.1544     -2968.5101     -11.104758      11333.556    
       720   303.01017      102.61896     -3420.6319     -2969.9272      49.360881      11333.659    
       730   300.99134      102.60028     -3420.0093     -2972.3075      98.82307       11333.762    
       740   296.94311      102.54668     -3418.2225     -2976.5421      172.05202      11333.868    
       750   291.18853      102.44341     -3414.7802     -2981.6593      269.2996       11333.977    
       760   285.41136      102.37137     -3412.3791     -2987.8513      343.67018      11334.091    
       770   281.59516      102.30947     -3410.3155     -2991.4641      384.78559      11334.212    
       780   282.54807      102.31617     -3410.5392     -2990.2703      349.27342      11334.34     
       790   289.63284      102.42818     -3414.2726     -2983.4657      219.06571      11334.474    
       800   300.03185      102.54739     -3418.2464     -2971.9717      61.632349      11334.613    
       810   308.2877       102.63798     -3421.2661     -2962.7115     -61.585934      11334.752    
       820   310.71938      102.67125     -3422.3751     -2960.2036     -105.73557      11334.891    
       830   307.52345      102.64611     -3421.5371     -2964.1193     -72.116055      11335.028    
       840   302.15441      102.52485     -3417.4951     -2968.0633      22.89293       11335.164    
       850   298.13288      102.4676      -3415.5868     -2972.1368      83.884824      11335.3      
       860   296.67001      102.44944     -3414.9813     -2973.7072      105.93738      11335.438    
       870   296.58354      102.4917      -3416.3901     -2975.2445      86.998689      11335.577    
       880   296.06716      102.48005     -3416.0017     -2975.6242      85.321133      11335.719    
       890   294.71392      102.49895     -3416.6318     -2978.2672      74.150128      11335.862    
       900   294.38346      102.50189     -3416.7296     -2978.8565      59.607065      11336.007    
       910   297.14658      102.51254     -3417.0847     -2975.1017      20.326698      11336.153    
       920   302.00619      102.61043     -3420.3477     -2971.1364     -64.333257      11336.299    
       930   305.93414      102.65474     -3421.8248     -2966.7709     -118.63161      11336.444    
       940   307.40562      102.65755     -3421.9185     -2964.6759     -136.19138      11336.587    
       950   306.76821      102.64009     -3421.3362     -2965.0417     -128.6904       11336.728    
       960   305.29429      102.60196     -3420.0653     -2965.9631     -105.54955      11336.866    
       970   304.01846      102.62212     -3420.7372     -2968.5328     -106.7261       11337.002    
       980   303.31582      102.61158     -3420.386      -2969.2267     -99.6691        11337.137    
       990   302.52705      102.6076      -3420.2532     -2970.2672     -92.791519      11337.269    
      1000   301.55956      102.58115     -3419.3717     -2970.8247     -70.72237       11337.4      
      1010   300.81013      102.57386     -3419.1287     -2971.6964     -51.294938      11337.53     
      1020   300.39211      102.57559     -3419.1864     -2972.3759     -29.836108      11337.659    
      1030   299.33668      102.5637      -3418.7901     -2973.5494      8.7734129      11337.787    
      1040   296.6402       102.51097     -3417.0324     -2975.8025      77.206027      11337.916    
      1050   292.71473      102.45135     -3415.0451     -2979.6541      150.36797      11338.046    
      1060   290.03225      102.41855     -3413.9517     -2982.5508      191.49723      11338.179    
      1070   291.18755      102.40472     -3413.4906     -2980.3712      184.25178      11338.316    
      1080   295.93233      102.46926     -3415.6419     -2975.465       109.77599      11338.456    
      1090   301.38402      102.55258     -3418.4193     -2970.1334      17.628252      11338.598    
      1100   304.75993      102.60029     -3420.0096     -2966.7023     -45.791449      11338.741    
      1110   305.66448      102.62608     -3420.8694     -2966.2167     -75.876093      11338.883    
      1120   304.62891      102.59074     -3419.6913     -2966.5789     -58.593962      11339.023    
      1130   302.02317      102.55512     -3418.5041     -2969.2675     -22.58369       11339.163    
      1140   298.58508      102.51078     -3417.0258     -2972.9032      25.686273      11339.302    
      1150   295.27914      102.46055     -3415.3516     -2976.1463      73.373158      11339.442    
      1160   292.92198      102.45246     -3415.0819     -2979.3827      92.430298      11339.583    
      1170   292.33036      102.46332     -3415.444      -2980.6247      85.349855      11339.726    
      1180   294.10501      102.48262     -3416.0872     -2978.6283      55.829032      11339.87     
      1190   297.62171      102.5167      -3417.2232     -2974.5335      10.61299       11340.016    
      1200   300.8721       102.55457     -3418.4857     -2970.9612     -28.796602      11340.162    
      1210   302.09528      102.57732     -3419.2439     -2969.9        -43.037457      11340.307    
      1220   301.2942       102.56128     -3418.7094     -2970.5571     -24.69978       11340.451    
      1230   299.19912      102.52946     -3417.6485     -2972.6125      9.2874832      11340.596    
      1240   296.58464      102.49759     -3416.5864     -2975.4392      44.753838      11340.74     
      1250   294.75895      102.46596     -3415.532      -2977.1004      71.139051      11340.886    
      1260   295.04587      102.45466     -3415.1554     -2976.2971      71.661308      11341.033    
      1270   297.29137      102.50871     -3416.9572     -2974.7588      32.155209      11341.181    
      1280   299.58993      102.55575     -3418.5251     -2972.9078     -3.891841       11341.33     
      1290   299.94169      102.56124     -3418.7079     -2972.5674     -8.9974825      11341.479    
      1300   297.90768      102.50273     -3416.7577     -2973.6426      27.467235      11341.628    
      1310   294.64962      102.42955     -3414.3184     -2976.0494      75.786813      11341.777    
      1320   292.32483      102.41391     -3413.7971     -2978.9861      93.284794      11341.928    
      1330   291.72582      102.4049      -3413.4967     -2979.5766      91.920974      11342.081    
      1340   292.46206      102.38853     -3412.9509     -2977.9358      79.794309      11342.236    
      1350   294.5096       102.45133     -3415.0445     -2976.9838      25.874593      11342.392    
      1360   298.37122      102.51026     -3417.0087     -2973.2041     -38.994236      11342.549    
      1370   303.19978      102.60766     -3420.2552     -2969.2685     -123.26146      11342.705    
      1380   306.63502      102.64039     -3421.3463     -2965.25       -168.67166      11342.859    
      1390   306.88775      102.66406     -3422.1354     -2965.6631     -183.02009      11343.009    
      1400   304.04705      102.63255     -3421.085      -2968.8381     -150.71726      11343.157    
      1410   299.67355      102.56587     -3418.8625     -2973.1208     -93.264282      11343.302    
      1420   295.76007      102.53784     -3417.928      -2978.0073     -56.673461      11343.445    
      1430   294.2211       102.49471     -3416.4905     -2978.8589     -36.189029      11343.587    
      1440   296.29347      102.52242     -3417.4139     -2976.6998     -73.138548      11343.729    
      1450   301.43098      102.58111     -3419.3705     -2971.0147     -144.83413      11343.869    
      1460   306.46427      102.662       -3422.0668     -2966.2244     -219.48019      11344.006    
      1470   307.07051      102.72255     -3424.0849     -2967.3408     -247.19504      11344.139    
      1480   302.2262       102.62491     -3420.8305     -2971.2919     -168.53781      11344.268    
      1490   295.91254      102.50891     -3416.9637     -2976.8163     -69.343874      11344.394    
      1500   293.51467      102.48029     -3416.0097     -2979.4289     -32.690514      11344.518    
      1510   296.40077      102.5086      -3416.9534     -2976.0798     -58.913222      11344.642    
      1520   300.88027      102.56521     -3418.8402     -2971.3036     -111.45789      11344.765    
      1530   302.55809      102.63432     -3421.144      -2971.1118     -151.46015      11344.886    
      1540   300.12099      102.59318     -3419.7727     -2973.3655     -121.5798       11345.004    
      1550   295.72426      102.49852     -3416.6172     -2976.7498     -60.323023      11345.12     
      1560   293.21701      102.42874     -3414.2914     -2978.1533     -24.51252       11345.234    
      1570   294.30124      102.45715     -3415.2383     -2977.4875     -53.284688      11345.348    
      1580   297.2301       102.5216      -3417.3867     -2975.2795     -107.01061      11345.462    
      1590   298.98447      102.51677     -3417.2256     -2972.5088     -122.27821      11345.573    
      1600   298.70648      102.49278     -3416.4259     -2972.1227     -111.02323      11345.682    
      1610   297.71341      102.50126     -3416.7086     -2973.8825     -103.01226      11345.789    
      1620   297.11452      102.49601     -3416.5337     -2974.5984     -91.082506      11345.895    
      1630   297.30884      102.47129     -3415.7097     -2973.4853     -77.580461      11345.999    
      1640   298.78999      102.50961     -3416.9871     -2972.5596     -98.059797      11346.101    
      1650   301.17367      102.54601     -3418.2004     -2970.2273     -122.36434      11346.202    
      1660   302.07819      102.57159     -3419.0531     -2969.7347     -128.75708      11346.3      
      1670   299.51126      102.50089     -3416.6963     -2971.196      -72.240847      11346.396    
      1680   294.74155      102.42818     -3414.2725     -2975.8668     -2.6910545      11346.492    
      1690   291.74199      102.38635     -3412.8782     -2978.9341      34.307843      11346.587    
      1700   293.10969      102.45446     -3415.1488     -2979.1703     -12.149307      11346.682    
      1710   297.65049      102.50383     -3416.7945     -2974.0619     -83.908952      11346.778    
      1720   303.1719       102.62349     -3420.7831     -2969.8379     -193.73665      11346.872    
      1730   307.97346      102.70461     -3423.4869     -2965.3997     -280.87443      11346.963    
      1740   310.42358      102.74589     -3424.8629     -2963.1313     -327.83015      11347.048    
      1750   308.98435      102.6686      -3422.2865     -2962.6957     -290.45697      11347.127    
      1760   303.30577      102.59762     -3419.9206     -2968.7762     -215.90229      11347.201    
      1770   295.37349      102.44503     -3414.8342     -2975.4885     -88.751825      11347.272    
      1780   288.58183      102.35733     -3411.9111     -2982.6675      3.2234537      11347.34     
      1790   286.12366      102.3238      -3410.7934     -2985.2061      35.315473      11347.409    
      1800   289.24191      102.40671     -3413.5571     -2983.3317     -28.64935       11347.478    
      1810   297.14237      102.51127     -3417.0423     -2975.0655     -143.52588      11347.547    
      1820   306.7571       102.68944     -3422.9814     -2966.7035     -301.98487      11347.613    
      1830   313.73846      102.79604     -3426.5345     -2959.8723     -410.82193      11347.673    
      1840   315.46631      102.85394     -3428.4648     -2959.2326     -457.42031      11347.726    
      1850   313.1446       102.79863     -3426.6211     -2960.8423     -424.11146      11347.77     
      1860   309.07371      102.7561      -3425.2035     -2965.4797     -376.66348      11347.807    
      1870   304.34807      102.62875     -3420.9583     -2968.2637     -287.57641      11347.837    
      1880   299.23758      102.55479     -3418.4931     -2973.3999     -214.98507      11347.861    
      1890   294.61017      102.49216     -3416.4054     -2978.1951     -150.95103      11347.881    
      1900   292.62684      102.4659      -3415.5299     -2980.2696     -121.40294      11347.898    
      1910   294.73464      102.45459     -3415.1529     -2976.7574     -126.19091      11347.913    
      1920   298.543        102.51667     -3417.2222     -2973.1621     -169.36777      11347.926    
      1930   300.01751      102.53123     -3417.7077     -2971.4544     -174.88024      11347.936    
      1940   297.5098       102.47321     -3415.7735     -2973.2502     -123.6894       11347.942    
      1950   292.72032      102.40416     -3413.4721     -2978.0728     -54.122983      11347.947    
      1960   288.44198      102.35868     -3411.956      -2982.9204     -3.1758329      11347.95     
      1970   287.06061      102.34938     -3411.6462     -2984.6652      7.0243271      11347.953    
      1980   289.1174       102.36877     -3412.2924     -2982.2521     -22.024816      11347.957    
      1990   292.6554       102.44227     -3414.7425     -2979.4398     -83.728317      11347.96     
      2000   295.37019      102.4598      -3415.3265     -2975.9858     -116.67331      11347.961    
      2010   296.19683      102.49594     -3416.5314     -2975.9611     -139.8338       11347.961    
      2020   294.91378      102.46034     -3415.3448     -2976.6829     -117.82079      11347.958    
      2030   292.68571      102.42218     -3414.0727     -2978.7249     -85.52933       11347.952    
      2040   291.21906      102.40352     -3413.4508     -2980.2845     -65.56538       11347.946    
      2050   291.52575      102.43558     -3414.5192     -2980.8967     -75.204052      11347.938    
      2060   292.2265       102.43805     -3414.6018     -2979.937      -72.972305      11347.928    
      2070   291.3302       102.44374     -3414.7914     -2981.4598     -59.216086      11347.918    
      2080   289.11166      102.39771     -3413.2571     -2983.2255     -16.689608      11347.906    
      2090   287.49107      102.34894     -3411.6312     -2984.01        19.658298      11347.895    
      2100   288.28498      102.35662     -3411.8874     -2983.0853      12.228993      11347.883    
      2110   292.74794      102.38854     -3412.9512     -2977.5108     -34.78138       11347.872    
      2120   300.53028      102.53822     -3417.9407     -2970.9247     -150.64156      11347.86     
      2130   308.32405      102.65662     -3421.8873     -2963.2787     -249.50274      11347.845    
      2140   311.53068      102.69717     -3423.2391     -2959.8609     -278.19387      11347.826    
      2150   307.96748      102.66589     -3422.1963     -2964.118      -226.12455      11347.802    
      2160   300.38104      102.54961     -3418.3202     -2971.5262     -113.66194      11347.774    
      2170   294.77642      102.42815     -3414.2716     -2975.814      -22.269937      11347.743    
      2180   295.95451      102.43381     -3414.4602     -2974.2503     -41.076469      11347.712    
      2190   303.46204      102.53197     -3417.7322     -2966.3555     -151.36097      11347.68     
      2200   312.55658      102.67426     -3422.4752     -2957.571      -294.69812      11347.645    
      2210   318.7055       102.77562     -3425.854      -2951.8038     -399.83343      11347.605    
      2220   320.39728      102.8168      -3427.2268     -2950.6601     -442.58916      11347.558    
      2230   317.8797       102.77791     -3425.9302     -2953.1082     -415.49052      11347.502    
      2240   311.77672      102.70008     -3423.3359     -2959.5917     -339.02848      11347.438    
      2250   302.70699      102.57312     -3419.104      -2968.8503     -217.6209       11347.369    
      2260   292.67486      102.4435      -3414.7834     -2979.4518     -88.626091      11347.295    
      2270   285.16164      102.34455     -3411.4849     -2987.3286      8.1084543      11347.219    
      2280   282.20319      102.34255     -3411.4183     -2991.6625      31.170612      11347.144    
      2290   282.97748      102.37759     -3412.5862     -2991.6786      8.2051752      11347.069    
      2300   285.93158      102.43789     -3414.5965     -2989.2949     -44.155719      11346.994    
      2310   290.34726      102.48885     -3416.295      -2984.4255     -102.40547      11346.918    
      2320   295.0939       102.57648     -3419.2161     -2980.2863     -171.9532       11346.841    
      2330   298.23363      102.60017     -3420.0056     -2976.4057     -197.00273      11346.761    
      2340   298.26375      102.6079      -3420.2634     -2976.6187     -185.58994      11346.676    
      2350   295.73143      102.56077     -3418.6922     -2978.8141     -130.60844      11346.589    
      2360   292.96497      102.49426     -3416.4753     -2980.7121     -67.459584      11346.499    
      2370   292.09589      102.44484     -3414.8281     -2980.3576     -30.607933      11346.408    
      2380   293.81324      102.47821     -3415.9405     -2978.9156     -52.059718      11346.316    
      2390   297.06026      102.55064     -3418.3547     -2976.5        -107.09318      11346.223    
      2400   300.21555      102.59011     -3419.6704     -2973.1226     -153.75205      11346.129    
      2410   302.53797      102.61296     -3420.4321     -2970.4298     -188.98252      11346.031    
      2420   304.25591      102.64237     -3421.4124     -2968.8548     -219.58165      11345.93     
      2430   305.82199      102.65763     -3421.9211     -2967.034      -237.76158      11345.825    
      2440   307.29055      102.6556      -3421.8533     -2964.7819     -240.86169      11345.715    
      2450   308.01497      102.65015     -3421.6718     -2963.5229     -228.94824      11345.601    
      2460   307.03804      102.64237     -3421.4122     -2964.7164     -197.68064      11345.483    
      2470   304.24561      102.60685     -3420.2284     -2967.6861     -140.43793      11345.361    
      2480   300.74443      102.56855     -3418.9516     -2971.6171     -79.66814       11345.236    
      2490   297.84227      102.50383     -3416.7943     -2973.7765     -19.502474      11345.11     
      2500   295.60022      102.45713     -3415.2376     -2975.5547      18.845691      11344.983    
      2510   293.88649      102.42241     -3414.0802     -2976.9463      39.000517      11344.857    
      2520   293.26239      102.40419     -3413.4731     -2977.2676      38.402741      11344.732    
      2530   294.10685      102.4321      -3414.4033     -2976.9417      6.3950233      11344.607    
      2540   295.81728      102.46528     -3415.5092     -2975.5034     -33.334103      11344.482    
      2550   297.50471      102.47047     -3415.6824     -2973.1667     -59.151947      11344.357    
      2560   299.15369      102.49872     -3416.6239     -2971.6554     -89.13128       11344.231    
      2570   301.20885      102.50158     -3416.7194     -2968.694      -105.69586      11344.103    
      2580   302.64556      102.52264     -3417.4212     -2967.2589     -119.72499      11343.973    
      2590   301.58946      102.53724     -3417.9079     -2969.3164     -111.10388      11343.841    
      2600   297.7043       102.48105     -3416.0349     -2973.2224     -56.040532      11343.707    
      2610   293.35909      102.35871     -3411.957      -2975.6076      24.024079      11343.572    
      2620   291.56189      102.33835     -3411.2783     -2977.6021      39.883565      11343.438    
      2630   293.60812      102.39624     -3413.208      -2976.4882     -8.4907358      11343.304    
      2640   298.03131      102.51408     -3417.1359     -2973.8369     -100.14792      11343.17     
      2650   301.81733      102.6182      -3420.6067     -2971.6763     -180.51902      11343.034    
      2660   303.04321      102.59644     -3419.8813     -2969.1275     -189.69062      11342.895    
      2670   301.98853      102.55569     -3418.5229     -2969.3378     -170.6951       11342.752    
      2680   300.12309      102.5341      -3417.8035     -2971.3931     -148.83703      11342.606    
      2690   298.71575      102.55902     -3418.6339     -2974.3168     -144.74921      11342.458    
      2700   298.59201      102.54037     -3418.0122     -2973.8792     -132.16927      11342.306    
      2710   300.38332      102.56675     -3418.8918     -2972.0944     -149.64109      11342.152    
      2720   303.06844      102.58303     -3419.4345     -2968.6431     -168.44022      11341.996    
      2730   304.32441      102.62487     -3420.829      -2968.1695     -185.36553      11341.836    
      2740   303.30099      102.58452     -3419.4839     -2968.3467     -151.81702      11341.673    
      2750   300.87376      102.5583      -3418.6101     -2971.0832     -109.68641      11341.507    
      2760   297.45912      102.53289     -3417.7629     -2975.315      -56.80552       11341.338    
      2770   293.01594      102.43263     -3414.4211     -2978.582       34.14054       11341.169    
      2780   288.39245      102.36116     -3412.0386     -2983.0767      113.38489      11341.001    
      2790   285.5558       102.30899     -3410.2995     -2985.5569      166.60367      11340.835    
      2800   286.02532      102.31895     -3410.6317     -2985.1907      164.15096      11340.671    
      2810   289.34856      102.37624     -3412.5413     -2982.1572      114.00162      11340.511    
      2820   294.1055       102.43956     -3414.6521     -2977.1925      42.273992      11340.353    
      2830   299.93311      102.51529     -3417.1763     -2971.0486     -48.229355      11340.196    
      2840   306.53118      102.61464     -3420.4881     -2964.5462     -153.45397      11340.037    
      2850   311.85384      102.71435     -3423.8115     -2959.9526     -242.07824      11339.876    
      2860   313.2011       102.69814     -3423.2714     -2957.4085     -245.05863      11339.711    
      2870   309.69361      102.68664     -3422.8881     -2962.2423     -201.38259      11339.541    
      2880   303.02764      102.55993     -3418.6643     -2967.9336     -80.581967      11339.367    
      2890   296.03906      102.47184     -3415.7281     -2975.3925      31.458414      11339.192    
      2900   290.63743      102.34496     -3411.4987     -2979.1976      143.31887      11339.018    
      2910   287.80523      102.27693     -3409.2309     -2981.1424      205.45467      11338.846    
      2920   288.4506       102.2499      -3408.33       -2979.2816      215.5557       11338.677    
      2930   293.375        102.31167     -3410.3888     -2974.0158      150.89435      11338.513    
      2940   301.21475      102.4455      -3414.8501     -2966.816       30.65779       11338.352    
      2950   308.31121      102.54046     -3418.0155     -2959.4259     -72.909842      11338.191    
      2960   311.95399      102.59071     -3419.6903     -2955.6824     -133.60314      11338.028    
      2970   311.96274      102.61312     -3420.4374     -2956.4165     -154.05803      11337.864    
      2980   309.56203      102.55144     -3418.3814     -2957.9313     -121.11478      11337.696    
      2990   306.26107      102.53527     -3417.8423     -2962.3021     -94.751412      11337.527    
      3000   303.31258      102.47719     -3415.9062     -2964.7518     -51.558238      11337.355    
      3010   301.72108      102.45166     -3415.0552     -2966.2679     -29.067803      11337.183    
      3020   302.22536      102.5014      -3416.7134     -2967.176      -48.367426      11337.01     
      3030   304.07861      102.54027     -3418.0089     -2965.715      -70.073968      11336.836    
      3040   304.81219      102.57779     -3419.2596     -2965.8745     -79.853024      11336.661    
      3050   302.09925      102.56268     -3418.7561     -2969.4064     -40.643285      11336.484    
      3060   295.32285      102.44229     -3414.743      -2975.4726      68.032293      11336.307    
      3070   287.71391      102.32111     -3410.7038     -2982.7512      177.33983      11336.131    
      3080   285.39557      102.25691     -3408.5636     -2984.0594      218.62325      11335.959    
      3090   291.29566      102.31774     -3410.5914     -2977.3112      146.11403      11335.79     
      3100   301.71006      102.51447     -3417.1491     -2968.3783     -11.121172      11335.624    
      3110   309.82146      102.64467     -3421.489      -2960.6531     -119.51601      11335.457    
      3120   311.54004      102.66554     -3422.1846     -2958.7924     -128.61868      11335.289    
      3130   307.35588      102.60014     -3420.0047     -2962.8361     -49.347569      11335.119    
      3140   299.96143      102.48587     -3416.1958     -2970.0259      78.804421      11334.947    
      3150   292.94367      102.36966     -3412.3219     -2976.5904      203.36733      11334.777    
      3160   289.67949      102.3422      -3411.4068     -2980.5305      256.42663      11334.611    
      3170   291.5571       102.35356     -3411.7853     -2978.1162      241.38999      11334.449    
      3180   297.3679       102.46825     -3415.6082     -2973.296       140.16994      11334.292    
      3190   305.09606      102.59643     -3419.881      -2966.0737      5.88899        11334.137    
      3200   312.95779      102.6872      -3422.9067     -2957.4057     -120.87024      11333.983    
      3210   318.97593      102.78154     -3426.0515     -2951.5989     -230.90742      11333.826    
      3220   321.27401      102.80728     -3426.9094     -2949.0386     -274.73174      11333.665    
      3230   319.42223      102.76962     -3425.6539     -2950.5376     -248.25047      11333.5      
      3240   314.77704      102.6972      -3423.24       -2955.033      -173.17506      11333.329    
      3250   309.54895      102.60817     -3420.2723     -2959.8417     -76.590758      11333.156    
      3260   304.63115      102.52788     -3417.5961     -2964.4803      21.974373      11332.981    
      3270   298.21639      102.40913     -3413.6376     -2970.0633      148.45734      11332.807    
      3280   289.90452      102.2892      -3409.64       -2978.429       282.99827      11332.635    
      3290   284.26178      102.2257      -3407.5232     -2984.7053      366.60832      11332.468    
      3300   285.98551      102.25067     -3408.3556     -2982.9739      354.362        11332.309    
      3310   293.16857      102.3744      -3412.4801     -2976.4141      257.59561      11332.155    
      3320   300.85273      102.48611     -3416.2036     -2968.708       157.9345       11332.007    
      3330   307.19725      102.60505     -3420.1683     -2963.2357      64.444158      11331.862    
      3340   312.50926      102.65306     -3421.7687     -2956.9349      10.184177      11331.718    
      3350   315.68156      102.68032     -3422.6772     -2953.1248     -14.914491      11331.574    
      3360   315.21996      102.64029     -3421.3431     -2952.4773      16.672511      11331.43     
      3370   311.30223      102.58698     -3419.5659     -2956.5275      80.183816      11331.287    
      3380   306.02533      102.54847     -3418.2824     -2963.0929      144.5774       11331.145    
      3390   302.76948      102.46202     -3415.4006     -2965.0539      208.21016      11331.005    
      3400   303.03021      102.39761     -3413.2536     -2962.5192      230.69783      11330.87     
      3410   305.56683      102.44679     -3414.893      -2960.3855      187.54172      11330.739    
      3420   307.84946      102.46445     -3415.4816     -2957.5789      156.25317      11330.611    
      3430   308.50382      102.47706     -3415.9021     -2957.026       141.82375      11330.487    
      3440   307.24251      102.4723      -3415.7432     -2958.7432      154.76579      11330.365    
      3450   304.01707      102.41398     -3413.7995     -2961.5971      208.07296      11330.246    
      3460   299.56687      102.33307     -3411.1023     -2965.5192      277.57452      11330.131    
      3470   296.25412      102.28137     -3409.3788     -2968.7233      320.77697      11330.021    
      3480   296.46908      102.33856     -3411.2854     -2970.3102      286.56273      11329.917    
      3490   301.18625      102.41305     -3413.7682     -2965.7764      206.33723      11329.819    
      3500   308.9032       102.52542     -3417.514      -2958.0439      89.365805      11329.724    
      3510   313.91814      112.61919     -3420.6397     -2953.7103      67.612224      11329.631    
      3520   312.24295      112.60156     -3420.052      -2955.6143      95.125534      11329.54     
      3530   304.29977      112.50271     -3416.7571     -2964.1343      217.82104      11329.451    
      3540   293.47721      112.33614     -3411.2048     -2974.6797      397.88539      11329.366    
      3550   284.09943      112.15851     -3405.2838     -2982.7074      572.93817      11329.289    
      3560   278.55535      112.06079     -3402.0262     -2987.6963      682.30821      11329.223    
      3570   276.90445      112.0161      -3400.5368     -2988.6624      729.22125      11329.169    
      3580   278.29139      112.0417      -3401.3902     -2987.4528      710.85825      11329.128    
      3590   282.02733      112.08664     -3402.888      -2983.3937      654.40232      11329.101    
      3600   287.51929      112.22794     -3407.598      -2979.9349      541.06651      11329.086    
      3610   293.11619      112.31574     -3410.5245     -2974.5364      446.55756      11329.082    
      3620   297.25748      112.35159     -3411.7197     -2969.5717      385.75199      11329.086    
      3630   300.07491      112.38104     -3412.7015     -2966.3628      343.20034      11329.097    
      3640   302.06404      112.38484     -3412.8281     -2963.5308      322.16935      11329.115    
      3650   303.12765      112.41264     -3413.7548     -2962.8754      303.62069      11329.139    
      3660   302.91151      112.37561     -3412.5203     -2961.9623      320.72161      11329.169    
      3670   301.92124      112.36116     -3412.0386     -2962.9536      334.91173      11329.205    
      3680   300.26744      112.34354     -3411.4514     -2964.8263      354.70793      11329.247    
      3690   297.55475      112.32401     -3410.8003     -2968.2101      383.2525       11329.296    
      3700   294.17834      112.22236     -3407.412      -2969.844       449.57961      11329.353    
      3710   291.29632      112.20398     -3406.7994     -2973.5182      482.50259      11329.417    
      3720   289.20344      112.15142     -3405.0474     -2974.8792      525.28828      11329.491    
      3730   287.45898      112.12438     -3404.1458     -2976.5724      557.40419      11329.575    
      3740   286.51267      112.1264      -3404.2133     -2978.0474      572.71094      11329.67     
      3750   287.31344      112.11414     -3403.8046     -2976.4476      580.55142      11329.775    
      3760   289.36185      112.13838     -3404.6128     -2974.209       565.12212      11329.892    
      3770   290.89722      112.16979     -3405.6598     -2972.9722      551.732        11330.019    
      3780   290.66995      112.17173     -3405.7244     -2973.3749      562.3118       11330.156    
      3790   289.53889      112.15068     -3405.0227     -2974.3556      584.35405      11330.305    
      3800   289.78909      112.16053     -3405.3509     -2974.3116      577.59117      11330.464    
      3810   292.60942      112.20539     -3406.8462     -2971.6119      531.73147      11330.634    
      3820   297.23945      112.27247     -3409.0823     -2966.9611      462.67367      11330.815    
      3830   301.36431      112.34693     -3411.5642     -2963.3077      399.51071      11331.004    
      3840   302.6552       112.34635     -3411.5449     -2961.3682      394.94306      11331.201    
      3850   300.42067      112.3342      -3411.1401     -2964.2871      428.84964      11331.406    
      3860   295.87062      112.25189     -3408.3964     -2968.3113      508.87435      11331.619    
      3870   291.53541      112.21259     -3407.0863     -2973.4494      563.15424      11331.842    
      3880   289.94498      112.15606     -3405.202      -2973.9308      588.75916      11332.076    
      3890   291.78413      112.16458     -3405.4859     -2971.4791      547.30571      11332.32     
      3900   295.8648       112.2578      -3408.5935     -2968.517       446.60707      11332.575    
      3910   300.04214      112.33294     -3411.0979     -2964.8079      352.58709      11332.839    
      3920   302.17368      112.36599     -3412.1997     -2962.7392      301.16953      11333.11     
      3930   300.6492       112.33391     -3411.1303     -2963.9374      317.87654      11333.386    
      3940   295.93374      112.23279     -3407.7597     -2967.5807      398.98235      11333.669    
      3950   290.77804      112.13233     -3404.4109     -2971.9006      492.39755      11333.959    
      3960   287.33475      112.10387     -3403.4622     -2976.0736      547.81839      11334.259    
      3970   285.57627      112.07994     -3402.6645     -2977.8915      585.25877      11334.57     
      3980   284.91368      112.08204     -3402.7347     -2978.9472      598.25549      11334.891    
      3990   285.46254      112.08847     -3402.9491     -2978.3452      592.29363      11335.224    
      4000   288.08377      112.08996     -3402.9986     -2974.4958      566.10494      11335.569    
      4010   292.6114       112.18633     -3406.2111     -2970.9738      482.86284      11335.924    
      4020   297.6507       112.24791     -3408.2638     -2965.5309      407.3563       11336.288    
      4030   300.91387      112.2955      -3409.8501     -2962.2635      354.22819      11336.661    
      4040   300.52864      112.27415     -3409.1384     -2962.1249      360.93713      11337.04     
      4050   296.8232       112.21327     -3407.1092     -2965.6071      412.338        11337.427    
      4060   292.32295      112.13122     -3404.3741     -2969.5658      481.51258      11337.821    
      4070   289.18909      112.05235     -3401.7452     -2971.5983      540.66065      11338.225    
      4080   288.10129      112.03126     -3401.042      -2972.5132      560.93871      11338.639    
      4090   288.7744       112.04736     -3401.5786     -2972.0486      553.51102      11339.064    
      4100   289.73004      112.07997     -3402.6656     -2971.7142      537.15622      11339.5      
      4110   289.66579      112.09551     -3403.1837     -2972.3278      532.74325      11339.946    
      4120   289.31649      112.11022     -3403.6739     -2973.3376      527.14514      11340.402    
      4130   290.401        112.14086     -3404.6952     -2972.7457      498.60206      11340.869    
      4140   293.44244      112.20016     -3406.6719     -2970.1985      437.93426      11341.345    
      4150   297.07805      112.22202     -3407.4006     -2965.5195      383.44542      11341.829    
      4160   299.19519      112.27759     -3409.253      -2964.2228      326.60874      11342.321    
      4170   299.10746      112.24902     -3408.3006     -2963.4009      321.19906      11342.82     
      4180   297.96346      112.22245     -3407.4151     -2964.217       326.33049      11343.326    
      4190   297.22599      112.25798     -3408.5992     -2966.498       307.12926      11343.837    
      4200   297.26404      112.28268     -3409.4228     -2967.265       287.80695      11344.355    
      4210   297.38504      112.28129     -3409.3762     -2967.0385      279.12343      11344.879    
      4220   296.71865      112.24689     -3408.2298     -2966.8833      289.87959      11345.408    
      4230   295.63337      112.19754     -3406.5847     -2966.8525      311.30148      11345.943    
      4240   295.27188      112.2077      -3406.9234     -2967.7289      309.66397      11346.484    
      4250   294.8828       112.17789     -3405.9295     -2967.3137      330.20378      11347.031    
      4260   293.20929      112.13844     -3404.6145     -2968.4879      369.59557      11347.585    
      4270   290.96694      112.12111     -3404.0371     -2971.2458      407.88284      11348.147    
      4280   289.70148      112.09242     -3403.0808     -2972.1718      442.75604      11348.716    
      4290   289.93317      112.0848      -3402.8267     -2971.5731      452.78363      11349.294    
      4300   291.31335      112.07656     -3402.5519     -2969.2453      446.13069      11349.881    
      4310   292.95409      112.14754     -3404.9179     -2969.1709      397.99735      11350.476    
      4320   293.91833      112.14408     -3404.8028     -2967.6215      374.89457      11351.08     
      4330   294.34084      112.12762     -3404.2541     -2966.4444      354.51458      11351.691    
      4340   294.73539      112.14616     -3404.872      -2966.4755      317.08021      11352.309    
      4350   295.1355       112.10955     -3403.6517     -2964.66        300.93402      11352.933    
      4360   295.194        112.09089     -3403.0296     -2963.9509      282.01337      11353.564    
      4370   295.44264      112.09901     -3403.3002     -2963.8517      255.77978      11354.2      
      4380   296.65828      112.12722     -3404.2405     -2962.9838      219.60871      11354.841    
      4390   298.68629      112.14531     -3404.8435     -2960.5703      184.05955      11355.487    
      4400   300.52419      112.18376     -3406.1252     -2959.1182      144.49622      11356.137    
      4410   301.34706      112.19345     -3406.4484     -2958.2174      125.4796       11356.79     
      4420   301.28382      112.22383     -3407.4609     -2959.3241      106.55093      11357.445    
      4430   301.31752      112.20061     -3406.6871     -2958.5002      109.74375      11358.104    
      4440   301.92321      112.24223     -3408.0744     -2958.9865      87.429694      11358.764    
      4450   302.04497      112.17322     -3405.7739     -2956.5049      114.68926      11359.427    
      4460   300.84472      112.14522     -3404.8408     -2957.3571      138.51555      11360.092    
      4470   298.50129      112.09824     -3403.2745     -2959.2765      178.46966      11360.76     
      4480   295.37477      112.04615     -3401.5382     -2962.1906      220.60045      11361.433    
      4490   293.36057      111.99287     -3399.7622     -2963.4106      246.16886      11362.109    
      4500   294.6262       112.05745     -3401.915      -2963.6808      195.96364      11362.791    
      4510   298.21569      112.12123     -3404.0409     -2960.4677      126.98699      11363.477    
      4520   300.55876      112.14445     -3404.8151     -2957.7567      87.63325       11364.165    
      4530   299.16589      112.10145     -3403.3818     -2958.3952      111.91312      11364.856    
      4540   294.68491      112.05035     -3401.6784     -2963.357       173.69645      11365.549    
      4550   289.53057      111.9448      -3398.1599     -2967.5052      266.42989      11366.246    
      4560   286.42262      111.91682     -3397.2274     -2971.1954      312.06253      11366.948    
      4570   286.42396      111.87359     -3395.7863     -2969.7523      332.56469      11367.656    
      4580   289.18882      111.91971     -3397.3238     -2967.1773      287.80883      11368.371    
      4590   294.35626      112.00575     -3400.1916     -2962.359       202.73639      11369.092    
      4600   300.5498       112.08918     -3402.9727     -2955.9277      110.18951      11369.817    
      4610   305.28711      112.15218     -3405.0726     -2950.9811      41.954866      11370.545    
      4620   307.12878      112.15497     -3405.1656     -2948.3348      25.616484      11371.274    
      4630   307.12819      112.12706     -3404.2354     -2947.4055      39.746733      11372.004    
      4640   307.52437      112.11376     -3403.7921     -2946.3729      43.89937       11372.736    
      4650   309.67751      112.12191     -3404.0636     -2943.4417      20.948667      11373.468    
      4660   312.41289      112.19105     -3406.3683     -2941.6778     -36.30149       11374.201    
      4670   313.20538      112.21597     -3407.199      -2941.3298     -66.553596      11374.934    
      4680   311.03866      112.17967     -3405.9889     -2943.3424     -50.656109      11375.667    
      4690   306.51388      112.11606     -3403.8687     -2947.9525     -1.2509107      11376.399    
      4700   300.83341      112.06882     -3402.2938     -2954.8269      56.805833      11377.131    
      4710   295.98899      112.00017     -3400.0058     -2959.7446      119.11845      11377.865    
      4720   294.4161       111.92692     -3397.5639     -2959.6423      156.9828       11378.601    
      4730   296.67189      111.96094     -3398.6981     -2957.4211      119.40584      11379.341    
      4740   300.81842      112.0185      -3400.6166     -2953.172       52.518379      11380.084    
      4750   304.35601      112.03828     -3401.2759     -2948.5694      2.6543805      11380.828    
      4760   305.31602      112.02297     -3400.7656     -2946.6311     -11.455671      11381.572    
      4770   302.82927      111.9502      -3398.34       -2947.9044      28.746312      11382.317    
      4780   297.98043      111.85014     -3395.0047     -2951.7814      102.48357      11383.063    
      4790   293.54688      111.78868     -3392.9559     -2956.3272      160.25955      11383.811    
      4800   292.12934      111.78532     -3392.8441     -2958.3239      169.72631      11384.563    
      4810   294.64257      111.83943     -3394.6475     -2956.389       121.1066       11385.318    
      4820   299.29149      111.90148     -3396.7159     -2951.5424      47.877231      11386.076    
      4830   303.01743      112.00331     -3400.1105     -2949.395      -33.802111      11386.836    
      4840   304.08315      112.00171     -3400.0569     -2947.7563     -52.312727      11387.595    
      4850   303.18594      111.99108     -3399.7026     -2948.7365     -46.679148      11388.354    
      4860   301.72563      111.96324     -3398.7747     -2949.9806     -24.733582      11389.112    
      4870   300.53583      111.93208     -3397.736      -2950.7118     -0.9846221      11389.871    
      4880   299.76733      111.93161     -3397.7203     -2951.8391      6.9014719      11390.629    
      4890   299.24922      111.88801     -3396.2671     -2951.1566      25.823213      11391.389    
      4900   299.09209      111.87804     -3395.9348     -2951.058       23.299163      11392.149    
      4910   299.87957      111.91541     -3397.1803     -2951.1322     -11.245143      11392.91     
      4920   301.47311      111.9228      -3397.4268     -2949.0084     -45.729952      11393.672    
      4930   302.05826      111.92128     -3397.3759     -2948.0872     -72.616068      11394.433    
      4940   300.35876      111.89353     -3396.4511     -2949.6902     -73.747174      11395.193    
      4950   297.6372       111.87253     -3395.7509     -2953.0381     -69.18525       11395.952    
      4960   296.07692      111.87086     -3395.6952     -2955.3032     -77.099223      11396.711    
      4970   296.13559      111.91989     -3397.3297     -2956.8504     -110.33217      11397.468    
      4980   296.41219      111.94885     -3398.2949     -2957.4043     -131.27853      11398.224    
      4990   295.77059      111.93094     -3397.698      -2957.7616     -122.6209       11398.978    
      5000   294.59257      111.87652     -3395.8839     -2957.6998     -93.75831       11399.73     
      5010   294.21635      111.83546     -3394.5154     -2956.8909     -76.289252      11400.481    
      5020   295.47589      111.81767     -3393.9224     -2954.4244     -83.828465      11401.23     
      5030   298.67202      111.84393     -3394.7978     -2950.5458     -126.69376      11401.979    
      5040   303.36957      111.92678     -3397.5594     -2946.3201     -203.8822       11402.725    
      5050   307.77387      111.99291     -3399.7637     -2941.9734     -270.13088      11403.468    
      5060   309.32585      112.00759     -3400.2529     -2940.1541     -292.40168      11404.207    
      5070   307.66529      112.00819     -3400.2731     -2942.6443     -282.9696       11404.94     
      5080   305.19181      111.95984     -3398.6614     -2944.7117     -247.1928       11405.668    
      5090   304.2525       111.99633     -3399.8777     -2947.3251     -256.33358      11406.392    
      5100   305.07768      112.01094     -3400.3646     -2946.5847     -271.91457      11407.112    
      5110   305.83207      111.97703     -3399.2344     -2944.3324     -270.98421      11407.827    
      5120   304.88073      111.95814     -3398.6048     -2945.1178     -267.11099      11408.537    
      5130   302.40323      111.89418     -3396.4727     -2946.6708     -240.23509      11409.243    
      5140   300.24019      111.84731     -3394.9105     -2948.3259     -229.59471      11409.944    
      5150   300.59391      111.86216     -3395.4054     -2948.2947     -267.4352       11410.641    
      5160   303.61125      111.96086     -3398.6952     -2947.0964     -356.56035      11411.334    
      5170   306.54266      112.01864     -3400.6213     -2944.6623     -421.63779      11412.02     
      5180   306.77695      111.98413     -3399.4709     -2943.1635     -417.83866      11412.699    
      5190   304.15784      111.914       -3397.1335     -2944.7218     -364.09118      11413.371    
      5200   300.09653      111.84366     -3394.7885     -2948.4177     -289.39566      11414.035    
      5210   295.98877      111.75292     -3391.764      -2951.5032     -205.42493      11414.695    
      5220   292.84995      111.70208     -3390.0692     -2954.4771     -152.26993      11415.351    
      5230   291.6477       111.69137     -3389.7122     -2955.9084     -142.47182      11416.005    
      5240   292.55275      111.69987     -3389.9956     -2954.8456     -169.02554      11416.656    
      5250   294.66411      111.70072     -3390.0239     -2951.7333     -211.6983       11417.304    
      5260   297.40119      111.77904     -3392.6346     -2950.2729     -293.18156      11417.949    
      5270   300.9853       111.8123      -3393.7434     -2946.0506     -359.96799      11418.589    
      5280   304.80374      111.86128     -3395.376      -2942.0035     -425.38776      11419.222    
      5290   307.37487      111.8855      -3396.1832     -2938.9863     -460.14521      11419.847    
      5300   307.37402      111.87094     -3395.698      -2938.5024     -450.27793      11420.464    
      5310   304.82916      111.86538     -3395.5127     -2942.1024     -417.12591      11421.073    
      5320   300.83925      111.78456     -3392.8187     -2945.3431     -345.16803      11421.675    
      5330   297.79154      111.72747     -3390.9157     -2947.9734     -297.08148      11422.27     
      5340   297.99073      111.74402     -3391.4673     -2948.2287     -314.1446       11422.86     
      5350   301.97596      111.77229     -3392.4097     -2943.2433     -375.60303      11423.444    
      5360   307.58445      111.84334     -3394.7781     -2937.2696     -471.73064      11424.021    
      5370   311.47825      111.89766     -3396.5887     -2933.2884     -547.04778      11424.59     
      5380   311.70647      111.89895     -3396.6318     -2932.9921     -566.96332      11425.149    
      5390   308.90287      111.83795     -3394.5984     -2935.1288     -532.13687      11425.697    
      5400   305.61789      111.78093     -3392.6977     -2938.1142     -489.66373      11426.236    
      5410   304.09402      111.75722     -3391.9074     -2939.5905     -469.58793      11426.766    
      5420   304.34601      111.79466     -3393.1553     -2940.4637     -483.21555      11427.287    
      5430   304.57045      111.78434     -3392.8114     -2939.7859     -475.90343      11427.799    
      5440   303.2568       111.7642      -3392.1401     -2941.0686     -453.02491      11428.303    
      5450   301.32247      111.72593     -3390.8643     -2942.67       -420.21135      11428.798    
      5460   301.38991      111.72094     -3390.698      -2942.4033     -418.24615      11429.286    
      5470   304.60375      111.76832     -3392.2773     -2939.2023     -458.84462      11429.765    
      5480   308.38689      111.80158     -3393.3859     -2934.6838     -492.97269      11430.237    
      5490   308.83503      111.82271     -3394.0904     -2934.7217     -490.55478      11430.699    
      5500   304.69949      111.75589     -3391.8629     -2938.6455     -415.63923      11431.152    
      5510   298.96406      111.6507      -3388.3565     -2943.6702     -316.65915      11431.598    
      5520   296.12416      111.57006     -3385.6687     -2945.2064     -258.2875       11432.038    
      5530   298.02014      111.63915     -3387.9717     -2944.6893     -303.48458      11432.473    
      5540   302.73836      111.69196     -3389.7319     -2939.4315     -372.65959      11432.902    
      5550   306.9116       111.76335     -3392.1117     -2935.6039     -449.18349      11433.325    
      5560   308.18793      111.77483     -3392.4943     -2934.0881     -482.22534      11433.74     
      5570   307.24352      111.76119     -3392.0398     -2935.0383     -486.71618      11434.146    
      5580   305.62552      111.78379     -3392.7931     -2938.1983     -495.08261      11434.542    
      5590   303.17153      111.75701     -3391.9002     -2940.9555     -472.83906      11434.93     
      5600   299.41077      111.68095     -3389.3652     -2944.0143     -417.43385      11435.308    
      5610   295.61418      111.64378     -3388.126      -2948.4223     -373.94808      11435.679    
      5620   294.09117      111.6484      -3388.2799     -2950.8416     -364.35049      11436.043    
      5630   295.88619      111.62919     -3387.6396     -2947.5313     -375.29302      11436.4      
      5640   300.24848      111.70783     -3390.2612     -2943.6643     -450.01786      11436.751    
      5650   305.8084       111.80642     -3393.5475     -2938.6807     -545.80821      11437.092    
      5660   310.54651      111.86374     -3395.4579     -2933.5435     -620.0548       11437.424    
      5670   313.18716      111.90207     -3396.7356     -2930.8934     -666.33252      11437.744    
      5680   313.73924      111.92145     -3397.3815     -2930.7182     -680.76249      11438.052    
      5690   312.27696      111.89945     -3396.6483     -2932.16       -653.64799      11438.347    
      5700   308.61047      111.82505     -3394.1685     -2935.1338     -581.33362      11438.63     
      5710   303.65648      111.74906     -3391.6352     -2939.9692     -493.76464      11438.902    
      5720   299.26627      111.66679     -3388.8929     -2943.757      -407.22008      11439.164    
      5730   296.49624      111.60365     -3386.7883     -2945.7727     -344.09767      11439.419    
      5740   295.22962      111.60494     -3386.8314     -2947.6998     -325.51413      11439.668    
      5750   294.86137      111.56195     -3385.3983     -2946.8144     -309.33758      11439.91     
      5760   295.1105       111.53306     -3384.4355     -2945.481      -315.43056      11440.147    
      5770   296.29381      111.5592      -3385.3066     -2944.592      -358.31913      11440.378    
      5780   298.76423      111.56324     -3385.4415     -2941.0523     -405.18525      11440.602    
      5790   301.74988      111.59561     -3386.5203     -2937.6902     -463.50584      11440.819    
      5800   304.25992      111.65949     -3388.6498     -2936.0863     -523.08397      11441.026    
      5810   306.19162      111.69809     -3389.9363     -2934.4995     -558.72157      11441.224    
      5820   307.51106      111.74227     -3391.4091     -2934.0097     -580.65908      11441.412    
      5830   307.37968      111.75056     -3391.6852     -2934.4812     -566.48869      11441.588    
      5840   304.56949      111.73018     -3391.0059     -2937.9819     -512.14935      11441.754    
      5850   299.11662      111.62254     -3387.4179     -2942.5046     -401.92893      11441.911    
      5860   293.81498      111.53717     -3384.5725     -2947.545      -308.86397      11442.06     
      5870   292.95571      111.54924     -3384.9745     -2949.2251     -301.79712      11442.203    
      5880   298.04476      111.64433     -3388.1444     -2944.8254     -387.96795      11442.34     
      5890   305.98417      111.80264     -3393.4214     -2938.2932     -533.24006      11442.47     
      5900   312.91297      111.889       -3396.3001     -2930.8658     -646.00948      11442.589    
      5910   316.57396      111.95655     -3398.5516     -2927.6718     -719.03372      11442.697    
      5920   316.34232      111.93174     -3397.7248     -2927.1896     -713.50363      11442.791    
      5930   312.94469      111.87797     -3395.9323     -2930.4508     -659.68638      11442.872    
      5940   308.51751      111.78747     -3392.9155     -2934.0191     -574.88607      11442.94     
      5950   305.3827       111.71064     -3390.3547     -2936.1211     -502.33692      11442.997    
      5960   304.4568       111.6745      -3389.1501     -2936.2937     -465.29302      11443.045    
      5970   304.70594      111.71715     -3390.5715     -2937.3445     -473.5026       11443.083    
      5980   304.65851      111.70749     -3390.2497     -2937.0933     -465.46605      11443.113    
      5990   304.29183      111.69256     -3389.7521     -2937.1411     -455.93132      11443.134    
      6000   304.42845      111.69393     -3389.7976     -2936.9834     -455.65446      11443.146    
      6010   305.11783      111.67294     -3389.0979     -2935.2583     -444.98433      11443.149    
      6020   304.3542       111.69888     -3389.9626     -2937.2588     -434.01644      11443.144    
      6030   299.9202       111.63232     -3387.744      -2941.6355     -355.31377      11443.131    
      6040   292.72295      111.49229     -3383.0762     -2947.673      -230.13996      11443.111    
      6050   287.6812       111.41178     -3380.3927     -2952.4887     -155.18297      11443.086    
      6060   289.52295      111.46119     -3382.0395     -2951.3961     -197.39385      11443.059    
      6070   297.90116      111.60724     -3386.908      -2943.8026     -341.05662      11443.027    
      6080   308.39122      111.78462     -3392.8206     -2934.112      -522.97846      11442.989    
      6090   316.58006      111.89632     -3396.5439     -2925.6551     -663.12119      11442.941    
      6100   320.33391      111.93024     -3397.6748     -2921.2024     -731.75353      11442.881    
      6110   319.95768      111.90735     -3396.9118     -2920.999      -734.46437      11442.806    
      6120   317.03808      111.83835     -3394.6116     -2923.0415     -687.23636      11442.718    
      6130   313.00594      111.78249     -3392.7498     -2927.1772     -627.46165      11442.616    
      6140   308.80705      111.72792     -3390.9306     -2931.6035     -561.40518      11442.502    
      6150   304.98027      111.68353     -3389.4509     -2935.8159     -500.74919      11442.378    
      6160   302.17993      111.66409     -3388.8031     -2939.3333     -457.33711      11442.244    
      6170   300.96549      111.6552      -3388.5066     -2940.8433     -431.06209      11442.101    
      6180   301.14269      111.65766     -3388.5888     -2940.6619     -419.12826      11441.949    
      6190   300.88586      111.66867     -3388.9557     -2941.4108     -405.82798      11441.79     
      6200   298.45042      111.61196     -3387.0652     -2943.1428     -348.93682      11441.623    
      6210   294.17793      111.58786     -3386.2621     -2948.6947     -291.34754      11441.449    
      6220   290.70518      111.51788     -3383.9294     -2951.5274     -226.39126      11441.27     
      6230   290.49925      111.49823     -3383.2743     -2951.1787     -211.76971      11441.086    
      6240   293.26261      111.51981     -3383.9937     -2947.7878     -243.66671      11440.898    
      6250   297.03214      111.60944     -3386.9814     -2945.1686     -317.20098      11440.705    
      6260   300.16423      111.62934     -3387.6446     -2941.173      -365.74904      11440.506    
      6270   302.07479      111.61703     -3387.2345     -2937.9211     -396.03722      11440.3      
      6280   303.02281      111.65583     -3388.5277     -2937.8043     -438.69498      11440.086    
      6290   303.55944      111.66815     -3388.9383     -2937.4166     -464.47477      11439.864    
      6300   303.92458      111.66579     -3388.8595     -2936.7948     -477.20874      11439.633    
      6310   304.14076      111.66487     -3388.8291     -2936.4427     -481.53449      11439.393    
      6320   303.59315      111.64737     -3388.2456     -2936.6738     -468.04246      11439.143    
      6330   302.24562      111.64028     -3388.0093     -2938.4419     -451.13386      11438.885    
      6340   301.56741      111.64819     -3388.2728     -2939.7142     -447.7014       11438.618    
      6350   303.02882      111.71539     -3390.513      -2939.7806     -488.44558      11438.341    
      6360   306.65544      111.78311     -3392.7703     -2936.6436     -550.095        11438.056    
      6370   311.03092      111.81199     -3393.733      -2931.098      -604.24669      11437.76     
      6380   314.72684      111.87308     -3395.7695     -2927.6372     -662.14149      11437.452    
      6390   316.88985      111.90881     -3396.9603     -2925.6106     -691.85241      11437.131    
      6400   317.3541       111.91626     -3397.2087     -2925.1685     -689.17365      11436.797    
      6410   316.15435      111.90399     -3396.7996     -2926.544      -659.89823      11436.45     
      6420   313.44351      111.85473     -3395.1578     -2928.9343     -601.96927      11436.09     
      6430   310.1779       111.79243     -3393.0811     -2931.715      -536.86155      11435.719    
      6440   308.62885      111.75084     -3391.6948     -2932.6328     -495.64809      11435.337    
      6450   309.51598      111.74973     -3391.6578     -2931.2762     -490.10346      11434.945    
      6460   310.97388      111.78186     -3392.7288     -2930.1787     -501.9928       11434.543    
      6470   311.54522      111.77563     -3392.521      -2929.1211     -493.00994      11434.132    
      6480   311.00784      111.75892     -3391.9639     -2929.3633     -469.74105      11433.712    
      6490   308.43188      111.7083      -3390.2765     -2931.5075     -415.1226       11433.282    
      6500   303.32318      111.60774     -3386.9247     -2935.7544     -320.92459      11432.844    
      6510   297.26955      111.50341     -3383.4471     -2941.2811     -217.0659       11432.399    
      6520   292.21294      111.37621     -3379.2069     -2944.5623     -113.10586      11431.95     
      6530   289.0348       111.33147     -3377.7155     -2947.7982     -60.874137      11431.499    
      6540   288.03294      111.31483     -3377.1609     -2948.7338     -45.090481      11431.046    
      6550   289.60919      111.32115     -3377.3718     -2946.6001     -66.291301      11430.592    
      6560   293.91897      111.44773     -3381.5911     -2944.4089     -157.84392      11430.137    
      6570   299.38385      111.57381     -3385.7938     -2940.483      -254.97961      11429.678    
      6580   302.58861      111.6427      -3388.09       -2938.0123     -304.84036      11429.214    
      6590   300.93827      111.66257     -3388.7524     -2941.1296     -291.9418       11428.745    
      6600   296.11246      111.56262     -3385.4207     -2944.9758     -208.48025      11428.269    
      6610   293.5069       111.50744     -3383.5813     -2947.012      -167.96607      11427.789    
      6620   297.91046      111.56465     -3385.4883     -2942.3691     -236.53809      11427.306    
      6630   308.8139       111.75748     -3391.9161     -2932.5789     -416.48174      11426.818    
      6640   320.99516      111.95627     -3398.5425     -2921.0865     -611.45454      11426.321    
      6650   329.46266      112.0936      -3403.1199     -2913.0691     -746.87234      11425.812    
      6660   332.30354      112.12538     -3404.1793     -2909.9029     -783.50817      11425.29     
      6670   330.23704      112.10303     -3403.4343     -2912.2317     -743.54887      11424.752    
      6680   324.47379      112.05869     -3401.9564     -2919.3262     -652.47337      11424.2      
      6690   316.12642      111.95958     -3398.6526     -2928.4385     -512.99937      11423.635    
      6700   306.53216      111.80827     -3393.6088     -2937.6655     -345.14686      11423.06     
      6710   298.0068       111.69854     -3389.9512     -2946.6886     -209.23111      11422.478    
      6720   292.98676      111.57616     -3385.8718     -2950.0762     -106.1266       11421.892    
      6730   292.00279      111.54843     -3384.9476     -2950.6156     -78.729941      11421.303    
      6740   292.73993      111.55313     -3385.1044     -2949.6759     -83.100181      11420.712    
      6750   293.14663      111.57604     -3385.8678     -2949.8344     -93.972213      11420.12     
      6760   293.37013      111.58006     -3386.0019     -2949.6361     -93.91439       11419.525    
      6770   293.9221       111.58957     -3386.3189     -2949.1321     -93.505949      11418.929    
      6780   294.48468      111.60316     -3386.772      -2948.7483     -92.613693      11418.33     
      6790   295.89528      111.62682     -3387.5608     -2947.439      -103.89978      11417.729    
      6800   300.16067      111.68607     -3389.5356     -2943.0693     -154.9477       11417.126    
      6810   307.60239      111.78639     -3392.8796     -2935.3444     -251.6915       11416.519    
      6820   316.03175      111.92706     -3397.5686     -2927.4954     -375.68361      11415.908    
      6830   322.72524      112.039       -3401.2999     -2921.2706     -474.53699      11415.289    
      6840   325.98928      112.08209     -3402.7362     -2917.8519     -514.0873       11414.661    
      6850   324.86631      112.07585     -3402.5284     -2919.3144     -489.1288       11414.022    
      6860   318.57269      111.97963     -3399.3209     -2925.4682     -378.3698       11413.374    
      6870   308.25875      111.82445     -3394.1485     -2935.6369     -209.43796      11412.719    
      6880   298.22203      111.69383     -3389.7944     -2946.2117     -54.845642      11412.06     
      6890   293.21028      111.61913     -3387.3042     -2951.1761      33.590906      11411.399    
      6900   294.06514      111.5709      -3385.6967     -2948.2971      60.265315      11410.738    
      6910   297.90193      111.65495     -3388.4983     -2945.3918      10.0454        11410.078    
      6920   301.79658      111.71634     -3390.5446     -2941.6451     -34.750354      11409.418    
      6930   305.59085      111.78011     -3392.6704     -2938.1272     -80.959659      11408.756    
      6940   310.08335      111.80422     -3393.4741     -2932.2486     -118.71588      11408.093    
      6950   315.39689      111.87762     -3395.9207     -2926.7917     -183.42452      11407.427    
      6960   320.73504      111.95946     -3398.6488     -2921.5797     -254.69374      11406.757    
      6970   324.99667      112.05517     -3401.839      -2918.4311     -325.02566      11406.082    
      6980   326.98769      112.04219     -3401.4063     -2915.0369     -335.26316      11405.401    
      6990   325.53943      112.03102     -3401.034      -2916.8188     -314.27507      11404.713    
      7000   320.27486      111.96435     -3398.8115     -2922.427      -236.27186      11404.018    
      7010   313.21316      111.87958     -3395.9859     -2930.1051     -131.474        11403.319    
      7020   307.52262      111.7941      -3393.1366     -2935.72       -33.721549      11402.617    
      7030   305.02908      111.74993     -3391.6645     -2937.9568      23.310955      11401.913    
      7040   305.38554      111.78475     -3392.8251     -2938.5872      24.942927      11401.21     
      7050   307.05005      111.79799     -3393.2664     -2936.5527      21.885633      11400.506    
      7060   308.00598      111.79158     -3393.0526     -2934.9171      29.489521      11399.803    
      7070   307.22958      111.80369     -3393.4562     -2936.4755      42.254458      11399.1      
      7080   305.28819      111.76093     -3392.0311     -2937.938       84.066135      11398.397    
      7090   303.24892      111.69693     -3389.8978     -2938.838       132.59255      11397.695    
      7100   301.6557       111.68768     -3389.5892     -2940.8992      154.29679      11396.996    
      7110   300.94429      111.68909     -3389.6363     -2942.0044      162.73286      11396.299    
      7120   301.65162      111.67863     -3389.2877     -2940.6038      164.83174      11395.605    
      7130   303.1122       111.73597     -3391.1991     -2940.3426      138.6402       11394.913    
      7140   303.87919      111.76995     -3392.3315     -2940.3343      132.72458      11394.224    
      7150   303.02684      111.73759     -3391.2529     -2940.5234      169.54919      11393.537    
      7160   300.75639      111.68162     -3389.3874     -2942.0351      225.79852      11392.853    
      7170   298.82354      111.63522     -3387.8408     -2943.3634      267.30809      11392.173    
      7180   300.43617      111.66346     -3388.7822     -2941.9061      241.74674      11391.497    
      7190   307.40505      111.80848     -3393.616      -2936.3743      122.88824      11390.825    
      7200   316.18049      111.97609     -3399.2031     -2928.9086     -18.564952      11390.156    
      7210   319.81817      112.05834     -3401.9447     -2926.2394     -82.113603      11389.486    
      7220   315.99737      112.04782     -3401.5939     -2931.5717     -45.32136       11388.813    
      7230   309.27494      111.91804     -3397.268      -2937.245       67.002292      11388.14     
      7240   304.94383      111.82421     -3394.1403     -2940.5595      148.45955      11387.468    
      7250   304.89179      111.87265     -3395.7551     -2942.2517      137.40128      11386.798    
      7260   307.51511      111.89865     -3396.6216     -2939.2162      106.39961      11386.131    
      7270   309.80088      111.9349      -3397.8301     -2937.0247      68.718457      11385.465    
      7280   309.60957      111.92598     -3397.5327     -2937.0119      67.901257      11384.8      
      7290   307.25775      111.86925     -3395.6416     -2938.619       106.52965      11384.136    
      7300   305.25647      111.86193     -3395.3978     -2941.352       131.2653       11383.473    
      7310   305.09062      111.86148     -3395.3826     -2941.5834      145.22575      11382.813    
      7320   306.03556      111.91109     -3397.0364     -2941.8317      131.93147      11382.154    
      7330   306.90428      111.9122      -3397.0734     -2940.5766      132.94431      11381.498    
      7340   308.08672      111.97384     -3399.1279     -2940.8723      102.20636      11380.844    
      7350   310.81134      111.9941      -3399.8032     -2937.4949      72.441058      11380.192    
      7360   314.59427      111.98873     -3399.6244     -2931.6892      47.439156      11379.541    
      7370   316.79804      112.02428     -3400.8093     -2929.5963      27.135862      11378.89     
      7380   315.2119       112.00463     -3400.1544     -2931.3006      66.628921      11378.239    
      7390   310.14281      111.95071     -3398.3569     -2937.043       154.02864      11377.59     
      7400   303.58475      111.85622     -3395.2073     -2943.648       270.56896      11376.942    
      7410   298.52468      111.78273     -3392.7577     -2948.7249      362.70992      11376.3      
      7420   297.43552      111.7517      -3391.7232     -2949.3104      399.70641      11375.664    
      7430   300.13416      111.82309     -3394.1029     -2947.6761      360.26295      11375.035    
      7440   304.12027      111.90424     -3396.808      -2944.4522      301.42753      11374.413    
      7450   306.77724      111.91602     -3397.2006     -2940.8927      277.22268      11373.796    
      7460   307.48771      111.94674     -3398.2245     -2940.8599      259.97894      11373.184    
      7470   307.89347      111.92912     -3397.6373     -2939.6691      261.71373      11372.576    
      7480   309.63587      111.94961     -3398.3203     -2937.7604      235.89205      11371.973    
      7490   312.59485      111.98657     -3399.5522     -2934.5911      190.1776       11371.375    
      7500   315.92421      112.0219      -3400.7301     -2930.8168      139.69616      11370.779    
      7510   321.20422      102.08209     -3402.7363     -2924.9694      0.25612046     11370.185    
      7520   329.67122      102.1986      -3406.62       -2916.2591     -122.18645      11369.591    
      7530   338.22431      102.32476     -3410.8253     -2907.7423     -239.29361      11368.994    
      7540   341.81323      102.40739     -3413.5796     -2905.1583     -283.77705      11368.393    
      7550   336.4811       102.34644     -3411.548      -2911.0579     -188.40432      11367.786    
[...]
      8180   295.3288       112.20063     -3406.6876     -2967.4084      366.49422      11340.931    
      8190   295.87904      112.16075     -3405.3585     -2965.2608      382.92717      11340.699    
      8200   294.67617      112.13883     -3404.6278     -2966.3193      410.27241      11340.475    
      8210   291.88977      112.0785      -3402.6166     -2968.4527      469.27544      11340.258    
      8220   288.97318      112.06711     -3402.2371     -2972.4113      512.26688      11340.05     
      8230   287.14171      112.04208     -3401.4025     -2974.301       550.55177      11339.852    
      8240   286.407        112.01548     -3400.516      -2974.5073      575.96787      11339.663    
      8250   286.04041      112.05011     -3401.6705     -2976.207       568.03984      11339.486    
      8260   285.24745      112.05773     -3401.9245     -2977.6405      565.15843      11339.319    
      8270   284.08253      112.03138     -3401.0461     -2978.4949      568.96177      11339.163    
      8280   283.49422      112.0303      -3401.01       -2979.3339      551.27616      11339.017    
      8290   284.05165      112.03237     -3401.0789     -2978.5736      518.84799      11338.882    
      8300   285.6291       112.05918     -3401.9727     -2977.1211      469.50368      11338.756    
      8310   287.53592      112.11514     -3403.8379     -2976.15        411.31466      11338.639    
      8320   289.28561      112.12891     -3404.2971     -2974.0067      379.34332      11338.53     
      8330   290.66477      112.14818     -3404.9394     -2972.5976      355.75607      11338.428    
      8340   292.4514       112.19786     -3406.5955     -2971.5962      323.68331      11338.333    
      8350   295.22584      112.25608     -3408.5359     -2969.4099      284.17468      11338.244    
      8360   298.12358      112.25315     -3408.4383     -2965.0021      269.03504      11338.16     
      8370   299.18848      112.26698     -3408.8993     -2963.8791      262.66011      11338.081    
      8380   297.64784      112.25679     -3408.5596     -2965.831       285.30867      11338.007    
      8390   294.76464      112.17676     -3405.8918     -2967.4518      343.16174      11337.939    
      8400   292.22568      112.12607     -3404.2023     -2969.5387      383.94897      11337.877    
      8410   290.88885      112.11107     -3403.7024     -2971.0273      397.69118      11337.822    
      8420   291.39936      112.15834     -3405.2781     -2971.8437      369.24822      11337.775    
      8430   294.53929      112.24155     -3408.0517     -2969.9468      306.13937      11337.735    
      8440   299.70326      112.3468      -3411.5598     -2965.7739      221.79804      11337.7      
      8450   304.36225      112.42385     -3414.1284     -2961.4127      157.38312      11337.67     
      8460   305.79707      112.44303     -3414.7676     -2959.9176      144.85529      11337.643    
      8470   303.73455      112.3997      -3413.3233     -2961.5412      187.67855      11337.618    
      8480   300.00012      112.37567     -3412.5223     -2966.2949      237.5136       11337.598    
      8490   296.24437      112.27231     -3409.077      -2968.4359      317.33487      11337.582    
      8500   292.69419      112.21972     -3407.3242     -2971.9637      374.35542      11337.571    
      8510   289.24588      112.18845     -3406.2817     -2976.0504      420.00553      11337.568    
      8520   286.28082      112.10986     -3403.6619     -2977.8409      477.02294      11337.573    
      8530   284.27174      112.09055     -3403.0184     -2980.1857      500.17567      11337.587    
      8540   283.71678      112.08354     -3402.7847     -2980.7775      504.60211      11337.61     
      8550   284.79642      112.10366     -3403.4554     -2979.8423      485.73948      11337.643    
      8560   286.49369      112.13401     -3404.4671     -2978.3294      460.02824      11337.685    
      8570   287.00706      112.13273     -3404.4243     -2977.523       459.19254      11337.736    
      8580   285.16479      112.10776     -3403.5921     -2979.431       488.69783      11337.795    
      8590   281.69321      112.08316     -3402.772      -2983.7747      529.18859      11337.864    
      8600   279.28636      112.05253     -3401.7511     -2986.3338      558.04518      11337.943    
      8610   280.33459      112.09127     -3403.0424     -2986.0659      527.07815      11338.032    
      8620   283.80617      112.11904     -3403.9681     -2981.8279      475.30449      11338.132    
      8630   286.73415      112.21271     -3407.0904     -2980.5951      398.7524       11338.24     
      8640   287.64608      112.22922     -3407.6405     -2979.7888      368.53873      11338.357    
      8650   287.15787      112.20654     -3406.8846     -2979.759       367.66511      11338.48     
      8660   287.26484      112.20555     -3406.8517     -2979.567       357.24907      11338.611    
      8670   290.17828      112.25132     -3408.3772     -2976.759       309.12354      11338.748    
      8680   296.01522      112.33418     -3411.1393     -2970.8391      226.16194      11338.891    
      8690   301.96018      112.43456     -3414.4852     -2965.3423      138.99669      11339.039    
      8700   304.78707      112.45128     -3415.0428     -2961.6951      112.56376      11339.19     
      8710   303.39186      112.43289     -3414.4295     -2963.1571      136.63339      11339.343    
      8720   299.22376      112.36424     -3412.1413     -2967.0686      205.58814      11339.499    
      8730   295.06971      112.27605     -3409.2016     -2970.3078      286.96958      11339.66     
      8740   292.22298      112.24132     -3408.0439     -2973.3844      340.04792      11339.825    
      8750   289.90672      112.21536     -3407.1786     -2975.9644      385.09901      11339.998    
      8760   286.92173      112.20187     -3406.729      -2979.9547      426.73321      11340.177    
      8770   283.51         112.12602     -3404.2005     -2982.5009      489.60505      11340.366    
      8780   281.09088      112.12583     -3404.1943     -2986.0929      506.72132      11340.563    
      8790   281.23948      112.17231     -3405.7435     -2987.4211      476.96786      11340.77     
      8800   284.45386      112.191       -3406.3668     -2983.2633      425.95973      11340.987    
      8810   290.26334      112.26882     -3408.9606     -2977.2158      328.75847      11341.212    
      8820   297.096        112.36374     -3412.1247     -2970.2169      219.36826      11341.443    
      8830   302.76499      112.41562     -3413.8539     -2963.5139      143.55924      11341.679    
      8840   305.06785      112.45851     -3415.2837     -2961.5184      108.62859      11341.917    
      8850   302.77349      112.38506     -3412.8353     -2962.4827      163.02893      11342.159    
      8860   296.90798      112.29542     -3409.8475     -2968.2194      254.58517      11342.404    
      8870   290.40335      112.19912     -3406.6374     -2974.6844      351.2665       11342.653    
      8880   286.07106      112.15484     -3405.1613     -2979.6523      404.6957       11342.91     
      8890   284.77696      112.15338     -3405.1127     -2981.5286      409.38136      11343.174    
      8900   285.52438      112.18201     -3406.0669     -2981.371       380.77889      11343.447    
      8910   286.81551      112.16828     -3405.6094     -2978.9931      360.88813      11343.727    
      8920   288.61911      112.17495     -3405.8316     -2976.5325      330.31697      11344.014    
      8930   290.27543      112.19488     -3406.4961     -2974.7333      299.50745      11344.308    
      8940   289.718        112.19365     -3406.4549     -2975.5213      296.96326      11344.607    
      8950   286.40447      112.14639     -3404.8797     -2978.8748      333.88159      11344.913    
      8960   282.25711      112.09305     -3403.1016     -2983.2656      376.05428      11345.226    
      8970   279.80279      112.07186     -3402.3954     -2986.2099      386.16626      11345.545    
      8980   279.64907      112.06141     -3402.0469     -2986.0901      365.61628      11345.873    
      8990   281.31907      112.10887     -3403.6291     -2985.1883      302.93829      11346.208    
      9000   285.16646      112.14917     -3404.9722     -2980.8087      225.779        11346.548    
      9010   290.98063      112.23811     -3407.9368     -2975.1252      124.03489      11346.893    
      9020   295.23829      112.35237     -3411.7458     -2972.6012      37.18166       11347.242    
      9030   295.52371      112.33315     -3411.1052     -2971.536       45.395548      11347.591    
      9040   292.33086      112.31899     -3410.6331     -2975.8131      90.766335      11347.942    
      9050   286.90843      112.22022     -3407.3408     -2980.5863      192.8066       11348.295    
      9060   280.73343      112.08531     -3402.8436     -2985.2739      314.49749      11348.652    
      9070   276.21468      112.02139     -3400.7129     -2989.8645      389.75599      11349.015    
      9080   275.69535      111.98869     -3399.6229     -2989.5469      409.35531      11349.386    
      9090   279.66579      112.08202     -3402.7339     -2986.7523      331.68529      11349.765    
      9100   286.03339      112.21139     -3407.0464     -2981.5934      208.29289      11350.151    
      9110   292.63505      112.30126     -3410.0419     -2974.7694      90.866521      11350.541    
      9120   298.18282      112.37752     -3412.5839     -2969.0595     -12.262737      11350.933    
      9130   300.90746      112.42631     -3414.2105     -2966.6334     -76.182191      11351.326    
      9140   299.52327      112.43403     -3414.4678     -2968.9496     -85.198972      11351.718    
      9150   295.42366      112.36479     -3412.1595     -2972.7392     -37.907639      11352.109    
      9160   291.31974      112.26001     -3408.6671     -2975.3511      27.932724      11352.499    
      9170   288.68122      112.21528     -3407.1758     -2977.7844      65.058808      11352.891    
      9180   286.58778      112.16777     -3405.5922     -2979.3146      103.89231      11353.284    
      9190   283.68838      112.14632     -3404.8774     -2982.9124      141.32912      11353.68     
      9200   280.18204      112.09497     -3403.1658     -2986.4163      193.90639      11354.079    
      9210   278.14507      112.07995     -3402.665      -2988.9453      216.45439      11354.482    
      9220   280.04447      112.05943     -3401.981      -2985.4361      202.65752      11354.89     
      9230   286.01646      112.15018     -3405.0061     -2979.5783      108.83009      11355.302    
      9240   292.4946       112.25734     -3408.5779     -2973.5144      2.7421823      11355.716    
      9250   295.69971      112.31371     -3410.4569     -2970.626      -56.717493      11356.131    
      9260   294.84269      112.30616     -3410.2054     -2971.6493     -55.3482        11356.546    
      9270   291.76852      112.26159     -3408.7195     -2974.736      -17.559387      11356.96     
      9280   288.62309      112.19617     -3406.5392     -2977.2342      30.378718      11357.374    
      9290   286.91021      112.13493     -3404.4977     -2977.7405      64.236561      11357.79     
      9300   287.51055      112.19512     -3406.504      -2978.8539      32.454769      11358.207    
      9310   289.55789      112.25966     -3408.6552     -2977.9598     -12.597551      11358.625    
      9320   290.73353      112.30179     -3410.0596     -2977.6155     -40.043034      11359.043    
      9330   289.30732      112.2609      -3408.6966     -2978.3739     -12.918504      11359.461    
      9340   285.96613      112.17624     -3405.8748     -2980.5219      47.347661      11359.88     
      9350   282.46842      112.07327     -3402.4424     -2982.2921      113.49472      11360.3      
      9360   280.4085       112.06523     -3402.1743     -2985.0879      125.6479       11360.723    
      9370   281.2384       112.10137     -3403.3788     -2985.058       89.485977      11361.148    
      9380   286.02088      112.19953     -3406.6511     -2981.2168     -7.5746326      11361.576    
      9390   293.46489      112.2908      -3409.6932     -2973.1864     -121.5142       11362.004    
      9400   299.04403      112.4022      -3413.4066     -2968.6012     -221.46772      11362.43     
      9410   298.51897      112.3642      -3412.1401     -2968.1157     -206.23476      11362.853    
      9420   291.74157      112.26121     -3408.7071     -2974.7636     -108.40276      11363.272    
      9430   282.5097       112.11355     -3403.785      -2983.5732      29.603501      11363.69     
      9440   275.42509      111.99785     -3399.9284     -2990.2544      135.59016      11364.109    
      9450   273.20893      111.91208     -3397.0692     -2990.6916      184.34752      11364.532    
      9460   275.28758      111.92536     -3397.5121     -2988.0426      153.49145      11364.957    
      9470   278.86427      111.95959     -3398.6531     -2983.8637      98.149819      11365.387    
      9480   281.51382      112.00192     -3400.0641     -2981.3336      45.685343      11365.819    
      9490   282.69428      112.05126     -3401.7087     -2981.2224      1.5071151      11366.252    
      9500   283.98498      112.08263     -3402.7543     -2980.3481     -35.01091       11366.686    
      9510   286.85042      112.11657     -3403.8856     -2977.2173     -81.890948      11367.12     
      9520   291.05391      112.23191     -3407.7304     -2974.8098     -168.28802      11367.553    
      9530   295.86644      112.26668     -3408.8894     -2968.8105     -224.46549      11367.983    
      9540   299.88848      112.34354     -3411.4513     -2965.3899     -284.86702      11368.409    
      9550   300.77962      112.33255     -3411.0849     -2963.698      -280.63083      11368.831    
      9560   297.09366      112.28843     -3409.6144     -2967.7101     -225.01034      11369.248    
      9570   290.33786      112.15767     -3405.2555     -2973.4        -114.30468      11369.662    
      9580   284.53632      112.06271     -3402.0902     -2978.864      -30.313526      11370.073    
      9590   283.33814      112.07216     -3402.4052     -2980.9612     -28.528997      11370.485    
      9600   286.75338      112.13091     -3404.3636     -2977.8397     -86.936051      11370.896    
      9610   291.42939      112.19483     -3406.4944     -2973.0153     -159.36831      11371.306    
      9620   294.24981      112.21197     -3407.0657     -2969.3914     -195.72352      11371.714    
      9630   294.46449      112.22899     -3407.633      -2969.6394     -204.19482      11372.119    
      9640   293.1573       112.2127      -3407.0899     -2971.0406     -180.77915      11372.52     
      9650   291.79996      112.2153      -3407.1768     -2973.1464     -158.99151      11372.919    
      9660   290.99461      112.16009     -3405.3362     -2972.5038     -117.2492       11373.315    
      9670   290.42763      112.17193     -3405.7309     -2973.7418     -103.17875      11373.709    
      9680   289.46792      112.13378     -3404.4593     -2973.8977     -68.802319      11374.102    
      9690   287.65956      112.09728     -3403.2426     -2975.3708     -31.467046      11374.494    
      9700   284.98153      112.0068      -3400.2265     -2976.3381      29.005648      11374.886    
      9710   282.58963      111.98034     -3399.3447     -2979.0141      57.644843      11375.278    
      9720   281.84761      111.95366     -3398.4555     -2979.2285      66.764561      11375.673    
      9730   283.25795      111.99045     -3399.6815     -2978.3568      28.832495      11376.069    
      9740   286.17765      112.00891     -3400.2971     -2974.6296     -17.507014      11376.466    
      9750   289.53735      112.06227     -3402.0757     -2971.4108     -79.436897      11376.864    
      9760   292.11051      112.09454     -3403.1514     -2968.6592     -122.30412      11377.26     
      9770   293.36547      112.14031     -3404.677      -2968.3181     -153.59118      11377.655    
      9780   293.51181      112.17937     -3405.9791     -2969.4025     -168.44299      11378.047    
      9790   293.04712      112.17276     -3405.7586     -2969.8733     -160.67059      11378.437    
      9800   292.92772      112.15609     -3405.2029     -2969.4951     -155.84577      11378.824    
      9810   293.94393      112.16627     -3405.5422     -2968.3229     -176.82022      11379.208    
      9820   295.82497      112.19478     -3406.4926     -2966.4754     -215.98726      11379.59     
      9830   297.08157      112.21284     -3407.0945     -2965.2082     -246.68252      11379.968    
      9840   296.22548      112.22723     -3407.5744     -2966.9615     -253.89515      11380.343    
      9850   292.34925      112.15175     -3405.0585     -2970.2111     -194.98862      11380.712    
      9860   286.40882      112.06953     -3402.3178     -2976.3064     -111.96055      11381.079    
      9870   281.73319      112.0361      -3401.2032     -2982.1464     -56.469434      11381.444    
      9880   280.79462      112.00579     -3400.1931     -2982.5323     -36.017079      11381.809    
      9890   283.35866      112.0022      -3400.0732     -2978.5987     -60.490274      11382.173    
      9900   287.68818      112.08316     -3402.7721     -2974.8577     -135.75973      11382.536    
      9910   291.6178       112.12589     -3404.1962     -2970.4368     -193.33982      11382.898    
      9920   293.66167      112.145       -3404.8332     -2968.0337     -223.11971      11383.256    
      9930   293.87696      112.13358     -3404.4526     -2967.3329     -222.68596      11383.61     
      9940   293.48599      112.15543     -3405.1808     -2968.6427     -226.78013      11383.961    
      9950   293.06568      112.13336     -3404.4453     -2968.5323     -213.39509      11384.308    
      9960   292.5744       112.12589     -3404.1965     -2969.0142     -208.17999      11384.651    
      9970   291.94217      112.10824     -3403.608      -2969.3661     -201.62062      11384.991    
      9980   290.62167      112.083       -3402.7668     -2970.4891     -187.27416      11385.328    
      9990   287.55112      112.00892     -3400.2974     -2972.5869     -138.66215      11385.661    
     10000   282.67199      111.96784     -3398.9279     -2978.4747     -85.122192      11385.993    
Loop time of 2.05833 on 1 procs for 10000 steps with 500 atoms

Performance: 419.757 ns/day, 0.057 hours/ns, 4858.301 timesteps/s, 2.429 Matom-step/s
96.2% CPU use with 1 MPI tasks x 1 OpenMP threads

MPI task timing breakdown:
Section |  min time  |  avg time  |  max time  |%varavg| %total
---------------------------------------------------------------
Pair    | 1.742      | 1.742      | 1.742      |   0.0 | 84.63
Bond    | 0.00056789 | 0.00056789 | 0.00056789 |   0.0 |  0.03
Neigh   | 0.016886   | 0.016886   | 0.016886   |   0.0 |  0.82
Comm    | 0.055448   | 0.055448   | 0.055448   |   0.0 |  2.69
Output  | 0.0066754  | 0.0066754  | 0.0066754  |   0.0 |  0.32
Modify  | 0.16802    | 0.16802    | 0.16802    |   0.0 |  8.16
Other   |            | 0.06873    |            |       |  3.34

Nlocal:            500 ave         500 max         500 min
Histogram: 1 0 0 0 0 0 0 0 0 0
Nghost:           1654 ave        1654 max        1654 min
Histogram: 1 0 0 0 0 0 0 0 0 0
Neighs:          14925 ave       14925 max       14925 min
Histogram: 1 0 0 0 0 0 0 0 0 0

Total # of neighbors = 14925
Ave neighs/atom = 29.85
Ave special neighs/atom = 0
Neighbor list builds = 22
Dangerous builds = 0

#write_data      ${rep}/lj-out.data
Total wall time: 0:00:02
